 Gaussian 09, Revision B.01,
 Gaussian 09:  EM64L-G09RevB.01 12-Aug-2010

 ------------------------------------------------------
 # opt=modredundant B3LYP/cc-pVDZ Geom=PrintInputOrient
 ------------------------------------------------------

 -------------------------------
 CY3 Dihedral Scan at MP2/6-31G*
 -------------------------------
 Symbolic Z-matrix:
 Charge =  0 Multiplicity = 1

 SCF Done:  E(RB3LYP) =  -2398.26711824     A.U. after   22 cycles
 SCF Done:  E(RB3LYP) =  -2398.26712608     A.U. after    8 cycles
 Optimization completed.
    -- Stationary point found.
 SCF Done:  E(RB3LYP) =  -2398.26177883     A.U. after   14 cycles
 SCF Done:  E(RB3LYP) =  -2398.26523288     A.U. after   13 cycles
 SCF Done:  E(RB3LYP) =  -2398.26556648     A.U. after   13 cycles
 SCF Done:  E(RB3LYP) =  -2398.26561919     A.U. after   11 cycles
 SCF Done:  E(RB3LYP) =  -2398.26563035     A.U. after   10 cycles
 SCF Done:  E(RB3LYP) =  -2398.26563239     A.U. after    8 cycles
 SCF Done:  E(RB3LYP) =  -2398.26563279     A.U. after    8 cycles
 SCF Done:  E(RB3LYP) =  -2398.26563297     A.U. after    8 cycles
 SCF Done:  E(RB3LYP) =  -2398.26563308     A.U. after    7 cycles
 SCF Done:  E(RB3LYP) =  -2398.26563315     A.U. after    7 cycles
 Optimization completed.
    -- Stationary point found.
 SCF Done:  E(RB3LYP) =  -2398.25784954     A.U. after   14 cycles
 SCF Done:  E(RB3LYP) =  -2398.26125270     A.U. after   15 cycles
 SCF Done:  E(RB3LYP) =  -2398.26157546     A.U. after   13 cycles
 SCF Done:  E(RB3LYP) =  -2398.26160171     A.U. after   11 cycles
 SCF Done:  E(RB3LYP) =  -2398.26160835     A.U. after   10 cycles
 SCF Done:  E(RB3LYP) =  -2398.26161003     A.U. after    8 cycles
 SCF Done:  E(RB3LYP) =  -2398.26161041     A.U. after    7 cycles
 Optimization completed.
    -- Stationary point found.

                         Standard orientation:
 ---------------------------------------------------------------------
 Center     Atomic      Atomic             Coordinates (Angstroms)
 Number     Number       Type             X           Y           Z
 ---------------------------------------------------------------------
      1          6           0       -6.097364    1.176040   -0.329212
      2          6           0       -4.765389    0.763650   -0.263613
      3          6           0       -4.389114   -0.585997   -0.135464
      4          6           0       -5.361679   -1.567466   -0.047689
      5          6           0       -6.709647   -1.170519   -0.062558
      6          6           0       -7.068759    0.178234   -0.215575
      7          6           0       -2.879178   -0.653506   -0.152705
      8          6           0       -2.484611    0.803504   -0.210588
      9          7           0       -3.586625    1.544282   -0.378081
     10          6           0       -3.608933    3.010632   -0.511359
     11          6           0       -2.225496    3.665864   -0.353102
     12          6           0       -1.303944    2.837036    0.545291
     13          6           0       -1.225573    1.408921    0.042755
     14          8           0       -0.045841    3.461820    0.764349
     15          6           0        1.066651    3.003476   -0.006345
     16          6           0        1.194171    1.490842    0.028348
     17          6           0       -0.017119    0.756969   -0.053754
     18          6           0        2.304458    3.673866    0.587407
     19          6           0        3.589678    3.125353   -0.030509
     20          7           0        3.599812    1.664882    0.033043
     21          6           0        2.444309    0.916682    0.042405
     22          6           0        2.828017   -0.551626    0.056653
     23          6           0        4.338124   -0.500692    0.000318
     24          6           0        4.736598    0.851769   -0.017244
     25          6           0        6.077825    1.231142   -0.090480
     26          6           0        7.038175    0.213694   -0.131460
     27          6           0        6.639635   -1.123600   -0.094766
     28          6           0        5.288083   -1.505575   -0.041041
     29         16           0       -8.015131   -2.450545    0.162731
     30         16           0        7.891894   -2.400326   -0.168588
     31          8           0       -8.128294   -2.486716    1.658158
     32          8           0       -9.193844   -1.870662   -0.557243
     33          8           0       -7.396704   -3.667975   -0.457377
     34          8           0        9.149921   -1.807565   -0.651529
     35          8           0        8.045449   -2.706665    1.462762
     36          8           0        7.326418   -3.627159   -0.771117
     37          1           0       -6.377410    2.222471   -0.464441
     38          1           0       -5.135364   -2.632925    0.028432
     39          1           0       -8.133169    0.415510   -0.260354
     40          1           0       -2.498281   -1.199888   -1.033930
     41          1           0       -2.446675   -1.137555    0.737067
     42          1           0       -4.304774    3.377216    0.259746
     43          1           0       -4.058284    3.250535   -1.487035
     44          1           0       -2.352544    4.675708    0.062875
     45          1           0       -1.745684    3.775935   -1.339430
     46          1           0       -1.757951    2.790752    1.553251
     47          1           0        0.938278    3.323280   -1.061903
     48          1           0        0.006885   -0.316379   -0.264150
     49          1           0        2.298740    3.488654    1.673356
     50          1           0        2.258732    4.761528    0.434717
     51          1           0        4.464166    3.504156    0.517690
     52          1           0        3.696263    3.442416   -1.084362
     53          1           0        2.390411   -1.088428   -0.801528
     54          1           0        2.459351   -1.049913    0.968181
     55          1           0        6.381895    2.277484   -0.127864
     56          1           0        8.099522    0.452032   -0.203465
     57          1           0        5.016944   -2.562185   -0.046353
     58          1           0        8.168051   -3.673391    1.530193
 ---------------------------------------------------------------------

 The electronic state is 1-A.
 Alpha  occ. eigenvalues --  -89.14931 -89.01764 -19.21102 -19.19697 -19.16653
 Alpha  occ. eigenvalues --  -19.16552 -19.02821 -19.02819 -19.02707 -14.46129
 Alpha  occ. eigenvalues --  -14.44533 -10.31074 -10.30717 -10.30034 -10.29937
 Alpha  occ. eigenvalues --  -10.29524 -10.29474 -10.29369 -10.26987 -10.26514
 Alpha  occ. eigenvalues --  -10.26475 -10.25913 -10.25765 -10.25570 -10.25483
 Alpha  occ. eigenvalues --  -10.25416 -10.25364 -10.25331 -10.24964 -10.24912
 Alpha  occ. eigenvalues --  -10.24520 -10.22285 -10.21520 -10.19675 -10.19379
 Alpha  occ. eigenvalues --  -10.18948  -8.18093  -8.04598  -6.14517  -6.14361
 Alpha  occ. eigenvalues --   -6.14222  -6.00929  -6.00901  -6.00892  -1.15761
 Alpha  occ. eigenvalues --   -1.09485  -1.06228  -1.05980  -1.05248  -1.03049
 Alpha  occ. eigenvalues --   -1.01663  -0.92507  -0.89673  -0.88947  -0.88409
 Alpha  occ. eigenvalues --   -0.88130  -0.87709  -0.86858  -0.85199  -0.82492
 Alpha  occ. eigenvalues --   -0.81557  -0.80097  -0.77680  -0.77075  -0.75031
 Alpha  occ. eigenvalues --   -0.74459  -0.73338  -0.71327  -0.68565  -0.68001
 Alpha  occ. eigenvalues --   -0.66468  -0.65261  -0.64651  -0.62479  -0.61670
 Alpha  occ. eigenvalues --   -0.59886  -0.58680  -0.57871  -0.57568  -0.57088
 Alpha  occ. eigenvalues --   -0.55911  -0.55301  -0.54558  -0.54186  -0.53219
 Alpha  occ. eigenvalues --   -0.52597  -0.52338  -0.51336  -0.50811  -0.50125
 Alpha  occ. eigenvalues --   -0.49714  -0.49212  -0.48702  -0.48372  -0.47870
 Alpha  occ. eigenvalues --   -0.47745  -0.46782  -0.46298  -0.45950  -0.45807
 Alpha  occ. eigenvalues --   -0.45110  -0.44851  -0.44604  -0.44284  -0.43896
 Alpha  occ. eigenvalues --   -0.43446  -0.43052  -0.42384  -0.41540  -0.40712
 Alpha  occ. eigenvalues --   -0.40201  -0.39848  -0.39119  -0.38848  -0.38344
 Alpha  occ. eigenvalues --   -0.38052  -0.36713  -0.36364  -0.36171  -0.35906
 Alpha  occ. eigenvalues --   -0.34821  -0.34784  -0.34127  -0.34085  -0.32035
 Alpha  occ. eigenvalues --   -0.31367  -0.31320  -0.30620  -0.27062  -0.26763
 Alpha  occ. eigenvalues --   -0.23977  -0.23693  -0.23561  -0.20897  -0.20662
 Alpha  occ. eigenvalues --   -0.19723  -0.16527
 Alpha virt. eigenvalues --   -0.13631  -0.07469  -0.07153  -0.04683  -0.02168
 Alpha virt. eigenvalues --   -0.00632  -0.00043   0.00201   0.00764   0.00866
 Alpha virt. eigenvalues --    0.01709   0.03049   0.03789   0.03964   0.04758

 Mulliken atomic charges:
              1
     1  C   -0.005132
     2  C    0.219212
     3  C   -0.130856
     4  C    0.046363
     5  C   -0.242881
     6  C    0.106472
     7  C    0.174731
     8  C    0.076676
     9  N   -0.261276
    10  C    0.088287
    11  C    0.050591
    12  C    0.153345
    13  C   -0.115783
    14  O   -0.319806
    15  C    0.126445
    16  C   -0.096641
    17  C    0.017156
    18  C    0.039290
    19  C    0.095655
    20  N   -0.315048
    21  C    0.081653
    22  C    0.186462
    23  C   -0.155649
    24  C    0.268851
    25  C   -0.010805
    26  C    0.109046
    27  C   -0.252192
    28  C    0.050504
    29  S    0.986482
    30  S    0.994052
    31  O   -0.517922
    32  O   -0.519996
    33  O   -0.524929
    34  O   -0.411127
    35  O   -0.324688
    36  O   -0.438118
    37  H   -0.029235
    38  H   -0.024310
    39  H   -0.005787
    40  H    0.082858
    41  H    0.077123
    42  H    0.062963
    43  H    0.061466
    44  H    0.033287
    45  H    0.020984
    46  H    0.029619
    47  H    0.011090
    48  H   -0.028620
    49  H    0.033279
    50  H    0.026308
    51  H    0.048169
    52  H    0.044788
    53  H    0.078320
    54  H    0.080169
    55  H   -0.011035
    56  H    0.005000
    57  H   -0.015299
    58  H    0.190437
 Sum of Mulliken atomic charges =   0.00000

 Dipole moment (field-independent basis, Debye):
    X=             23.1094    Y=             16.1613    Z=             -0.5038  Tot=             28.2044
 Quadrupole moment (field-independent basis, Debye-Ang):
   XX=           -449.2559   YY=           -220.6511   ZZ=           -227.7287
   XY=            -75.2615   XZ=             23.4732   YZ=            -10.2328

 Normal termination of Gaussian 09 at Sat Mar 21 00:51:31 2015.
