 Gaussian 09, Revision B.01,
 Gaussian 09:  EM64L-G09RevB.01 12-Aug-2010

 ------------------------------------------------------
 # opt=modredundant B3LYP/cc-pVDZ Geom=PrintInputOrient
 ------------------------------------------------------

 -------------------------------
 CY3 Dihedral Scan at MP2/6-31G*
 -------------------------------
 Symbolic Z-matrix:
 Charge =  0 Multiplicity = 1

 SCF Done:  E(RB3LYP) =  -2398.26711824     A.U. after   22 cycles
 SCF Done:  E(RB3LYP) =  -2398.26712607     A.U. after    8 cycles
 Optimization completed.
    -- Stationary point found.
 SCF Done:  E(RB3LYP) =  -2398.26149289     A.U. after   17 cycles
 SCF Done:  E(RB3LYP) =  -2398.26151289     A.U. after    8 cycles
 SCF Done:  E(RB3LYP) =  -2398.26317129     A.U. after   13 cycles
 SCF Done:  E(RB3LYP) =  -2398.26355391     A.U. after   13 cycles
 SCF Done:  E(RB3LYP) =  -2398.26359893     A.U. after   12 cycles
 SCF Done:  E(RB3LYP) =  -2398.26360389     A.U. after    9 cycles
 SCF Done:  E(RB3LYP) =  -2398.26360568     A.U. after    8 cycles
 SCF Done:  E(RB3LYP) =  -2398.26360593     A.U. after    7 cycles
 Optimization completed.
    -- Stationary point found.
 SCF Done:  E(RB3LYP) =  -2398.24858792     A.U. after   17 cycles
 SCF Done:  E(RB3LYP) =  -2398.25201460     A.U. after   17 cycles
 SCF Done:  E(RB3LYP) =  -2398.25223908     A.U. after   17 cycles
 SCF Done:  E(RB3LYP) =  -2398.25226238     A.U. after   12 cycles
 SCF Done:  E(RB3LYP) =  -2398.25227797     A.U. after   17 cycles
 SCF Done:  E(RB3LYP) =  -2398.25228712     A.U. after   17 cycles
 SCF Done:  E(RB3LYP) =  -2398.25229101     A.U. after   16 cycles
 SCF Done:  E(RB3LYP) =  -2398.25229383     A.U. after   16 cycles
 SCF Done:  E(RB3LYP) =  -2398.25229410     A.U. after    8 cycles
 SCF Done:  E(RB3LYP) =  -2398.25229411     A.U. after    7 cycles
 Optimization completed.
    -- Stationary point found.

                         Standard orientation:
 ---------------------------------------------------------------------
 Center     Atomic      Atomic             Coordinates (Angstroms)
 Number     Number       Type             X           Y           Z
 ---------------------------------------------------------------------
      1          6           0       -6.106188    1.158482    0.109987
      2          6           0       -4.773727    0.820865   -0.105943
      3          6           0       -4.343658   -0.502898   -0.352597
      4          6           0       -5.261798   -1.535648   -0.337277
      5          6           0       -6.605246   -1.226063   -0.049293
      6          6           0       -7.019238    0.096989    0.157321
      7          6           0       -2.842425   -0.460963   -0.616766
      8          6           0       -2.511504    0.933502   -0.128008
      9          7           0       -3.636359    1.661287   -0.275498
     10          6           0       -3.686435    3.120286   -0.104118
     11          6           0       -2.303595    3.747135   -0.294972
     12          6           0       -1.290264    2.982814    0.567102
     13          6           0       -1.261931    1.525207    0.143810
     14          8           0       -0.015708    3.612200    0.635697
     15          6           0        1.055069    3.062851   -0.131227
     16          6           0        1.157750    1.556229    0.029030
     17          6           0       -0.061317    0.843293    0.046475
     18          6           0        2.328326    3.754829    0.352947
     19          6           0        3.576778    3.129739   -0.267485
     20          7           0        3.563868    1.678494   -0.083657
     21          6           0        2.401515    0.958884    0.040416
     22          6           0        2.759020   -0.509461    0.167329
     23          6           0        4.265854   -0.495394    0.049747
     24          6           0        4.686484    0.841260   -0.103445
     25          6           0        6.029205    1.187302   -0.259989
     26          6           0        6.970267    0.151221   -0.245353
     27          6           0        6.550883   -1.169312   -0.074819
     28          6           0        5.196896   -1.519031    0.062648
     29         16           0       -7.815699   -2.605198    0.093697
     30         16           0        7.779572   -2.472621   -0.079799
     31          8           0       -7.591913   -3.045603    1.510965
     32          8           0       -9.132848   -1.943042   -0.173902
     33          8           0       -7.339475   -3.572284   -0.949534
     34          8           0        9.028228   -1.946782   -0.655058
     35          8           0        7.984747   -2.638300    1.565536
     36          8           0        7.172160   -3.735020   -0.553667
     37          1           0       -6.430852    2.191113    0.253103
     38          1           0       -4.999509   -2.576190   -0.538664
     39          1           0       -8.081284    0.269470    0.341065
     40          1           0       -2.612424   -0.508360   -1.695918
     41          1           0       -2.279179   -1.258900   -0.112538
     42          1           0       -4.086388    3.339278    0.901016
     43          1           0       -4.409207    3.511267   -0.835321
     44          1           0       -2.341597    4.803003    0.010064
     45          1           0       -2.004463    3.711330   -1.355477
     46          1           0       -1.656299    3.011189    1.610834
     47          1           0        0.891175    3.290095   -1.205529
     48          1           0       -0.064422   -0.242471   -0.083811
     49          1           0        2.365087    3.662707    1.450182
     50          1           0        2.295382    4.826338    0.109835
     51          1           0        4.480290    3.532333    0.212106
     52          1           0        3.645817    3.354537   -1.347588
     53          1           0        2.277750   -1.107968   -0.624290
     54          1           0        2.416411   -0.920077    1.131225
     55          1           0        6.348490    2.220034   -0.401839
     56          1           0        8.031979    0.360738   -0.376926
     57          1           0        4.908643   -2.566420    0.161542
     58          1           0        8.084234   -3.598462    1.715234
 ---------------------------------------------------------------------

 The electronic state is 1-A.
 Alpha  occ. eigenvalues --  -89.15170 -89.01494 -19.21334 -19.19811 -19.16888
 Alpha  occ. eigenvalues --  -19.16791 -19.02578 -19.02554 -19.02472 -14.45147
 Alpha  occ. eigenvalues --  -14.45055 -10.31266 -10.30776 -10.30171 -10.29981
 Alpha  occ. eigenvalues --  -10.29876 -10.29828 -10.28811 -10.27335 -10.26848
 Alpha  occ. eigenvalues --  -10.26773 -10.26284 -10.26082 -10.25874 -10.25702
 Alpha  occ. eigenvalues --  -10.25481 -10.25168 -10.25131 -10.25019 -10.24941
 Alpha  occ. eigenvalues --  -10.24730 -10.21778 -10.21101 -10.19361 -10.18937
 Alpha  occ. eigenvalues --  -10.18525  -8.18332  -8.04332  -6.14755  -6.14599
 Alpha  occ. eigenvalues --   -6.14462  -6.00660  -6.00636  -6.00628  -1.16007
 Alpha  occ. eigenvalues --   -1.09555  -1.06507  -1.05579  -1.05488  -1.03294
 Alpha  occ. eigenvalues --   -1.01389  -0.92862  -0.89749  -0.88925  -0.88147
 Alpha  occ. eigenvalues --   -0.87983  -0.87848  -0.86770  -0.84868  -0.82703
 Alpha  occ. eigenvalues --   -0.81873  -0.79909  -0.77651  -0.76846  -0.74837
 Alpha  occ. eigenvalues --   -0.74427  -0.73177  -0.71444  -0.68498  -0.68131
 Alpha  occ. eigenvalues --   -0.66529  -0.65231  -0.64841  -0.62277  -0.61279
 Alpha  occ. eigenvalues --   -0.60064  -0.58924  -0.58044  -0.57858  -0.57137
 Alpha  occ. eigenvalues --   -0.56004  -0.55035  -0.54562  -0.54261  -0.53241
 Alpha  occ. eigenvalues --   -0.52591  -0.52219  -0.51540  -0.50989  -0.50361
 Alpha  occ. eigenvalues --   -0.49491  -0.49314  -0.48933  -0.48356  -0.48051
 Alpha  occ. eigenvalues --   -0.47729  -0.46973  -0.46467  -0.45833  -0.45516
 Alpha  occ. eigenvalues --   -0.45030  -0.44811  -0.44653  -0.43867  -0.43769
 Alpha  occ. eigenvalues --   -0.43453  -0.43211  -0.42176  -0.41558  -0.40861
 Alpha  occ. eigenvalues --   -0.40152  -0.39980  -0.39389  -0.39035  -0.38102
 Alpha  occ. eigenvalues --   -0.37875  -0.36576  -0.36328  -0.36010  -0.35675
 Alpha  occ. eigenvalues --   -0.34891  -0.34404  -0.34353  -0.34198  -0.32276
 Alpha  occ. eigenvalues --   -0.31667  -0.31491  -0.30776  -0.26942  -0.26385
 Alpha  occ. eigenvalues --   -0.23957  -0.23455  -0.23331  -0.20639  -0.20377
 Alpha  occ. eigenvalues --   -0.19393  -0.16279
 Alpha virt. eigenvalues --   -0.14219  -0.07696  -0.07478  -0.04771  -0.01758
 Alpha virt. eigenvalues --   -0.00728  -0.00243   0.00100   0.00691   0.00900
 Alpha virt. eigenvalues --    0.02142   0.02823   0.03689   0.04171   0.04822

 Mulliken atomic charges:
              1
     1  C   -0.009324
     2  C    0.219258
     3  C   -0.121282
     4  C    0.049501
     5  C   -0.243506
     6  C    0.100308
     7  C    0.168147
     8  C    0.074109
     9  N   -0.257653
    10  C    0.084401
    11  C    0.051840
    12  C    0.156216
    13  C   -0.109257
    14  O   -0.320630
    15  C    0.132318
    16  C   -0.100090
    17  C    0.016867
    18  C    0.037923
    19  C    0.094761
    20  N   -0.311891
    21  C    0.085222
    22  C    0.186733
    23  C   -0.154751
    24  C    0.267431
    25  C   -0.009107
    26  C    0.109293
    27  C   -0.251375
    28  C    0.051419
    29  S    0.986189
    30  S    0.995009
    31  O   -0.519408
    32  O   -0.520480
    33  O   -0.525949
    34  O   -0.409991
    35  O   -0.324270
    36  O   -0.436710
    37  H   -0.031431
    38  H   -0.024504
    39  H   -0.006412
    40  H    0.083570
    41  H    0.059694
    42  H    0.056258
    43  H    0.055638
    44  H    0.030858
    45  H    0.022386
    46  H    0.029698
    47  H    0.012131
    48  H   -0.025786
    49  H    0.033463
    50  H    0.027980
    51  H    0.049618
    52  H    0.047197
    53  H    0.080900
    54  H    0.083149
    55  H   -0.009554
    56  H    0.006264
    57  H   -0.013616
    58  H    0.191228
 Sum of Mulliken atomic charges =   0.00000

 Dipole moment (field-independent basis, Debye):
    X=             23.7034    Y=             17.3307    Z=             -0.1188  Tot=             29.3636
 Quadrupole moment (field-independent basis, Debye-Ang):
   XX=           -435.1400   YY=           -225.9816   ZZ=           -226.0195
   XY=            -78.4535   XZ=             17.0656   YZ=             -9.6070

 Normal termination of Gaussian 09 at Fri Mar 20 23:46:55 2015.
