 Gaussian 09, Revision B.01,
 Gaussian 09:  EM64L-G09RevB.01 12-Aug-2010

 ------------------------------------------------------
 # opt=modredundant B3LYP/cc-pVDZ Geom=PrintInputOrient
 ------------------------------------------------------

 -------------------------------
 CY3 Dihedral Scan at MP2/6-31G*
 -------------------------------
 Symbolic Z-matrix:
 Charge =  0 Multiplicity = 1

 SCF Done:  E(RB3LYP) =  -2398.26711824     A.U. after   22 cycles
 SCF Done:  E(RB3LYP) =  -2398.26712607     A.U. after    8 cycles
 Optimization completed.
    -- Stationary point found.
 SCF Done:  E(RB3LYP) =  -2398.25759998     A.U. after   14 cycles
 SCF Done:  E(RB3LYP) =  -2398.26349621     A.U. after   14 cycles
 SCF Done:  E(RB3LYP) =  -2398.26423854     A.U. after   12 cycles
 SCF Done:  E(RB3LYP) =  -2398.26437750     A.U. after   12 cycles
 SCF Done:  E(RB3LYP) =  -2398.26440308     A.U. after   11 cycles
 SCF Done:  E(RB3LYP) =  -2398.26440853     A.U. after   11 cycles
 SCF Done:  E(RB3LYP) =  -2398.26440977     A.U. after    8 cycles
 SCF Done:  E(RB3LYP) =  -2398.26441029     A.U. after    8 cycles
 SCF Done:  E(RB3LYP) =  -2398.26441308     A.U. after    8 cycles
 SCF Done:  E(RB3LYP) =  -2398.26441311     A.U. after    7 cycles
 Optimization completed.
    -- Stationary point found.
 SCF Done:  E(RB3LYP) =  -2398.24679535     A.U. after   14 cycles
 SCF Done:  E(RB3LYP) =  -2398.25371771     A.U. after   14 cycles
 SCF Done:  E(RB3LYP) =  -2398.25426001     A.U. after   12 cycles
 SCF Done:  E(RB3LYP) =  -2398.25429908     A.U. after   12 cycles
 SCF Done:  E(RB3LYP) =  -2398.25430786     A.U. after   12 cycles
 SCF Done:  E(RB3LYP) =  -2398.25431119     A.U. after   11 cycles
 SCF Done:  E(RB3LYP) =  -2398.25431185     A.U. after    8 cycles
 SCF Done:  E(RB3LYP) =  -2398.25431189     A.U. after    7 cycles
 Optimization completed.
    -- Stationary point found.

                         Standard orientation:
 ---------------------------------------------------------------------
 Center     Atomic      Atomic             Coordinates (Angstroms)
 Number     Number       Type             X           Y           Z
 ---------------------------------------------------------------------
      1          6           0       -6.116405    1.175809    0.431460
      2          6           0       -4.788317    0.765585    0.295317
      3          6           0       -4.427099   -0.553038   -0.035954
      4          6           0       -5.409827   -1.505581   -0.245951
      5          6           0       -6.752586   -1.119319   -0.097489
      6          6           0       -7.097389    0.203613    0.225454
      7          6           0       -2.920299   -0.617945   -0.110907
      8          6           0       -2.503521    0.793266    0.232646
      9          7           0       -3.603930    1.528728    0.432983
     10          6           0       -3.584959    2.962724    0.752359
     11          6           0       -2.261508    3.601380    0.334811
     12          6           0       -1.082074    2.775537    0.857223
     13          6           0       -1.193553    1.325017    0.355362
     14          8           0        0.176396    3.420943    0.578860
     15          6           0        0.872155    2.743601   -0.478713
     16          6           0        1.160421    1.344347    0.034134
     17          6           0       -0.046572    0.590695    0.100059
     18          6           0        2.155201    3.561511   -0.685163
     19          6           0        3.305996    2.743722   -1.267356
     20          7           0        3.506674    1.527979   -0.479982
     21          6           0        2.432885    0.827206    0.019925
     22          6           0        2.924283   -0.514589    0.523485
     23          6           0        4.396624   -0.475301    0.183807
     24          6           0        4.679485    0.765491   -0.424608
     25          6           0        5.955502    1.091580   -0.887304
     26          6           0        6.971719    0.146122   -0.710362
     27          6           0        6.691561   -1.071096   -0.086146
     28          6           0        5.402350   -1.409936    0.357708
     29         16           0       -8.071822   -2.388957   -0.295406
     30         16           0        8.010529   -2.265579    0.109892
     31          8           0       -8.209949   -2.879942    1.115788
     32          8           0       -9.233120   -1.599334   -0.816253
     33          8           0       -7.455624   -3.365743   -1.251851
     34          8           0        9.109543   -1.913816   -0.803657
     35          8           0        8.482115   -1.890873    1.664270
     36          8           0        7.447191   -3.632355    0.167016
     37          1           0       -6.386112    2.202681    0.685650
     38          1           0       -5.196462   -2.537176   -0.533336
     39          1           0       -8.158834    0.447927    0.294302
     40          1           0       -2.554803   -0.901655   -1.111820
     41          1           0       -2.483679   -1.336173    0.603602
     42          1           0       -3.763556    3.071830    1.835716
     43          1           0       -4.431555    3.429500    0.230818
     44          1           0       -2.210614    4.622599    0.738894
     45          1           0       -2.205282    3.673142   -0.764048
     46          1           0       -1.141954    2.740305    1.960895
     47          1           0        0.255787    2.702519   -1.393677
     48          1           0       -0.072537   -0.495827   -0.022604
     49          1           0        2.449983    3.943407    0.304978
     50          1           0        1.961135    4.431259   -1.329453
     51          1           0        4.232885    3.332893   -1.249613
     52          1           0        3.110325    2.458866   -2.318673
     53          1           0        2.394137   -1.347007    0.028251
     54          1           0        2.740554   -0.620903    1.604783
     55          1           0        6.166999    2.040680   -1.380355
     56          1           0        7.983673    0.343472   -1.064552
     57          1           0        5.216522   -2.387217    0.805283
     58          1           0        8.638012   -2.752915    2.096021
 ---------------------------------------------------------------------

 The electronic state is 1-A.
 Alpha  occ. eigenvalues --  -89.14926 -89.01883 -19.21081 -19.19657 -19.16668
 Alpha  occ. eigenvalues --  -19.16545 -19.02945 -19.02928 -19.02868 -14.46114
 Alpha  occ. eigenvalues --  -14.44319 -10.31073 -10.30570 -10.29951 -10.29550
 Alpha  occ. eigenvalues --  -10.29415 -10.29300 -10.29290 -10.26883 -10.26567
 Alpha  occ. eigenvalues --  -10.26488 -10.25854 -10.25721 -10.25672 -10.25593
 Alpha  occ. eigenvalues --  -10.25523 -10.25429 -10.25280 -10.24890 -10.24665
 Alpha  occ. eigenvalues --  -10.24154 -10.22333 -10.21618 -10.19743 -10.19517
 Alpha  occ. eigenvalues --  -10.19078  -8.18087  -8.04719  -6.14511  -6.14356
 Alpha  occ. eigenvalues --   -6.14214  -6.01050  -6.01022  -6.01013  -1.15765
 Alpha  occ. eigenvalues --   -1.09149  -1.06296  -1.05822  -1.05235  -1.03063
 Alpha  occ. eigenvalues --   -1.01789  -0.92405  -0.89643  -0.89058  -0.88530
 Alpha  occ. eigenvalues --   -0.88260  -0.87484  -0.86519  -0.85256  -0.82453
 Alpha  occ. eigenvalues --   -0.81409  -0.80030  -0.77679  -0.76961  -0.74924
 Alpha  occ. eigenvalues --   -0.74180  -0.73267  -0.71140  -0.68274  -0.67760
 Alpha  occ. eigenvalues --   -0.66490  -0.65320  -0.64611  -0.62564  -0.61781
 Alpha  occ. eigenvalues --   -0.59831  -0.58675  -0.57909  -0.57456  -0.57078
 Alpha  occ. eigenvalues --   -0.55562  -0.55177  -0.54488  -0.54134  -0.53233
 Alpha  occ. eigenvalues --   -0.52611  -0.52329  -0.51433  -0.50664  -0.49957
 Alpha  occ. eigenvalues --   -0.49656  -0.49027  -0.48830  -0.48378  -0.47826
 Alpha  occ. eigenvalues --   -0.47667  -0.46590  -0.46172  -0.46005  -0.45722
 Alpha  occ. eigenvalues --   -0.45014  -0.44704  -0.44571  -0.44276  -0.44117
 Alpha  occ. eigenvalues --   -0.43371  -0.42729  -0.42362  -0.41473  -0.40375
 Alpha  occ. eigenvalues --   -0.40016  -0.39667  -0.39181  -0.38657  -0.38460
 Alpha  occ. eigenvalues --   -0.38146  -0.36972  -0.36469  -0.36202  -0.36030
 Alpha  occ. eigenvalues --   -0.34897  -0.34736  -0.34131  -0.33914  -0.32124
 Alpha  occ. eigenvalues --   -0.31753  -0.31290  -0.30465  -0.27116  -0.26833
 Alpha  occ. eigenvalues --   -0.24093  -0.23816  -0.23657  -0.21019  -0.20772
 Alpha  occ. eigenvalues --   -0.19822  -0.16650
 Alpha virt. eigenvalues --   -0.13809  -0.07544  -0.07151  -0.04842  -0.02264
 Alpha virt. eigenvalues --   -0.00743  -0.00009   0.00164   0.00830   0.01122
 Alpha virt. eigenvalues --    0.01823   0.02685   0.03790   0.03929   0.04875

 Mulliken atomic charges:
              1
     1  C   -0.009530
     2  C    0.221923
     3  C   -0.131349
     4  C    0.043043
     5  C   -0.243155
     6  C    0.111485
     7  C    0.178559
     8  C    0.076760
     9  N   -0.262081
    10  C    0.088118
    11  C    0.054765
    12  C    0.161190
    13  C   -0.124156
    14  O   -0.318407
    15  C    0.099617
    16  C   -0.067357
    17  C    0.017625
    18  C    0.049873
    19  C    0.094554
    20  N   -0.303156
    21  C    0.050521
    22  C    0.192471
    23  C   -0.161743
    24  C    0.266500
    25  C   -0.010329
    26  C    0.109891
    27  C   -0.251481
    28  C    0.047326
    29  S    0.986712
    30  S    0.995198
    31  O   -0.516233
    32  O   -0.519557
    33  O   -0.524101
    34  O   -0.410294
    35  O   -0.324858
    36  O   -0.439184
    37  H   -0.026795
    38  H   -0.024124
    39  H   -0.005793
    40  H    0.081859
    41  H    0.081846
    42  H    0.058494
    43  H    0.060705
    44  H    0.032211
    45  H    0.024550
    46  H    0.023350
    47  H    0.008300
    48  H   -0.020218
    49  H    0.036139
    50  H    0.026242
    51  H    0.045438
    52  H    0.042833
    53  H    0.076148
    54  H    0.080166
    55  H   -0.010348
    56  H    0.004814
    57  H   -0.015175
    58  H    0.190201
 Sum of Mulliken atomic charges =   0.00000

 Dipole moment (field-independent basis, Debye):
    X=             22.7760    Y=             15.8732    Z=              2.0374  Tot=             27.8362
 Quadrupole moment (field-independent basis, Debye-Ang):
   XX=           -450.8049   YY=           -230.1103   ZZ=           -219.8460
   XY=            -73.5198   XZ=             -4.4303   YZ=            -13.8394

 Normal termination of Gaussian 09 at Thu Mar 19 12:18:15 2015.
