 Gaussian 09, Revision B.01,
 Gaussian 09:  EM64L-G09RevB.01 12-Aug-2010

 ------------------------------------------------------
 # opt=modredundant B3LYP/cc-pVDZ Geom=PrintInputOrient
 ------------------------------------------------------

 -------------------------------
 CY3 Dihedral Scan at MP2/6-31G*
 -------------------------------
 Symbolic Z-matrix:
 Charge =  0 Multiplicity = 1

 SCF Done:  E(RB3LYP) =  -2398.26711824     A.U. after   22 cycles
 SCF Done:  E(RB3LYP) =  -2398.26712592     A.U. after    8 cycles
 Optimization completed.
    -- Stationary point found.
 SCF Done:  E(RB3LYP) =  -2398.26457119     A.U. after   13 cycles
 SCF Done:  E(RB3LYP) =  -2398.26269028     A.U. after   13 cycles
 SCF Done:  E(RB3LYP) =  -2398.26468653     A.U. after   13 cycles
 SCF Done:  E(RB3LYP) =  -2398.26470805     A.U. after   12 cycles
 SCF Done:  E(RB3LYP) =  -2398.26472716     A.U. after   13 cycles
 SCF Done:  E(RB3LYP) =  -2398.26474498     A.U. after   12 cycles
 SCF Done:  E(RB3LYP) =  -2398.17892799     A.U. after   17 cycles
 SCF Done:  E(RB3LYP) =  -2398.26474606     A.U. after   20 cycles
 Optimization completed.
    -- Stationary point found.
 SCF Done:  E(RB3LYP) =  -2398.25857281     A.U. after    8 cycles
 SCF Done:  E(RB3LYP) =  -2398.25857294     A.U. after    7 cycles
 SCF Done:  E(RB3LYP) =  -2398.25857286     A.U. after    7 cycles
 SCF Done:  E(RB3LYP) =  -2398.25857290     A.U. after    6 cycles
 SCF Done:  E(RB3LYP) =  -2398.25857284     A.U. after    6 cycles
 SCF Done:  E(RB3LYP) =  -2398.25857288     A.U. after    7 cycles
 SCF Done:  E(RB3LYP) =  -2398.25857288     A.U. after    6 cycles
 SCF Done:  E(RB3LYP) =  -2398.25857299     A.U. after    7 cycles
 SCF Done:  E(RB3LYP) =  -2398.25857296     A.U. after    7 cycles
 SCF Done:  E(RB3LYP) =  -2398.25857301     A.U. after    6 cycles
 Optimization completed.
    -- Stationary point found.

                         Standard orientation:
 ---------------------------------------------------------------------
 Center     Atomic      Atomic             Coordinates (Angstroms)
 Number     Number       Type             X           Y           Z
 ---------------------------------------------------------------------
      1          6           0        6.128159    1.136910   -0.193999
      2          6           0        4.777146    0.773575   -0.237400
      3          6           0        4.349045   -0.565420   -0.331459
      4          6           0        5.276936   -1.594412   -0.249595
      5          6           0        6.612963   -1.230687   -0.004883
      6          6           0        7.040563    0.081076   -0.274540
      7          6           0        2.844036   -0.563446   -0.458730
      8          6           0        2.500001    0.906144   -0.388357
      9          7           0        3.633398    1.607160   -0.252396
     10          6           0        3.690685    3.068011   -0.087416
     11          6           0        2.332195    3.638061    0.326759
     12          6           0        1.243038    3.046197   -0.577054
     13          6           0        1.230158    1.536147   -0.437561
     14          8           0       -0.023392    3.674120   -0.424699
     15          6           0       -1.021492    2.998397    0.341392
     16          6           0       -1.166364    1.545122   -0.072689
     17          6           0        0.038559    0.848569   -0.342212
     18          6           0       -2.324284    3.765416    0.121975
     19          6           0       -3.513506    3.039097    0.748977
     20          7           0       -3.546089    1.645308    0.309064
     21          6           0       -2.411159    0.958684   -0.058566
     22          6           0       -2.806059   -0.466237   -0.399862
     23          6           0       -4.292329   -0.474444   -0.122037
     24          6           0       -4.671595    0.815018    0.304034
     25          6           0       -5.984863    1.123979    0.662210
     26          6           0       -6.938963    0.104023    0.570699
     27          6           0       -6.562505   -1.165628    0.128932
     28          6           0       -5.236180   -1.481948   -0.211995
     29         16           0        7.851256   -2.549768    0.338491
     30         16           0       -7.803823   -2.452180    0.037071
     31          8           0        9.084252   -2.058187   -0.356817
     32          8           0        7.895873   -2.503891    1.836952
     33          8           0        7.215278   -3.777763   -0.242767
     34          8           0       -8.967286   -2.050212    0.844055
     35          8           0       -8.209093   -2.312004   -1.574049
     36          8           0       -7.167038   -3.778559    0.190047
     37          1           0        6.454383    2.177993   -0.234037
     38          1           0        5.014892   -2.654256   -0.254228
     39          1           0        8.116903    0.263537   -0.304656
     40          1           0        2.345577   -1.128387    0.345732
     41          1           0        2.494147   -0.990891   -1.414267
     42          1           0        4.032017    3.503058   -1.041920
     43          1           0        4.460759    3.283268    0.666428
     44          1           0        2.355969    4.732670    0.224521
     45          1           0        2.120607    3.399947    1.382048
     46          1           0        1.525087    3.271940   -1.623369
     47          1           0       -0.743384    3.032680    1.415618
     48          1           0        0.034216   -0.243745   -0.397159
     49          1           0       -2.474857    3.868594   -0.964508
     50          1           0       -2.247263    4.776923    0.545504
     51          1           0       -4.453654    3.522139    0.446482
     52          1           0       -3.465863    3.068649    1.853139
     53          1           0       -2.256014   -1.193369    0.220772
     54          1           0       -2.574665   -0.702964   -1.451259
     55          1           0       -6.270248    2.115345    1.014871
     56          1           0       -7.976443    0.285272    0.852209
     57          1           0       -4.977138   -2.495640   -0.520567
     58          1           0       -8.318984   -3.230130   -1.888552
 ---------------------------------------------------------------------

 The electronic state is 1-A.
 Alpha  occ. eigenvalues --  -89.14907 -89.01863 -19.21068 -19.19661 -19.16643
 Alpha  occ. eigenvalues --  -19.16530 -19.02985 -19.02981 -19.02756 -14.45922
 Alpha  occ. eigenvalues --  -14.44514 -10.30902 -10.30672 -10.29956 -10.29873
 Alpha  occ. eigenvalues --  -10.29486 -10.29439 -10.29219 -10.26954 -10.26488
 Alpha  occ. eigenvalues --  -10.26401 -10.25881 -10.25729 -10.25540 -10.25415
 Alpha  occ. eigenvalues --  -10.25367 -10.25329 -10.25302 -10.24877 -10.24822
 Alpha  occ. eigenvalues --  -10.24486 -10.22210 -10.21541 -10.19723 -10.19456
 Alpha  occ. eigenvalues --  -10.19108  -8.18069  -8.04699  -6.14492  -6.14338
 Alpha  occ. eigenvalues --   -6.14197  -6.01030  -6.01005  -6.00991  -1.15743
 Alpha  occ. eigenvalues --   -1.09423  -1.06107  -1.05946  -1.05218  -1.03040
 Alpha  occ. eigenvalues --   -1.01770  -0.92474  -0.89687  -0.88979  -0.88532
 Alpha  occ. eigenvalues --   -0.88234  -0.87676  -0.86775  -0.85253  -0.82446
 Alpha  occ. eigenvalues --   -0.81525  -0.80040  -0.77603  -0.77049  -0.74983
 Alpha  occ. eigenvalues --   -0.74342  -0.73258  -0.71243  -0.68459  -0.67937
 Alpha  occ. eigenvalues --   -0.66393  -0.65202  -0.64636  -0.62457  -0.61563
 Alpha  occ. eigenvalues --   -0.59882  -0.58643  -0.57980  -0.57629  -0.57048
 Alpha  occ. eigenvalues --   -0.55919  -0.55018  -0.54467  -0.54152  -0.53205
 Alpha  occ. eigenvalues --   -0.52509  -0.52416  -0.51279  -0.50811  -0.50081
 Alpha  occ. eigenvalues --   -0.49641  -0.49180  -0.48691  -0.48352  -0.47712
 Alpha  occ. eigenvalues --   -0.47690  -0.46691  -0.46309  -0.45918  -0.45708
 Alpha  occ. eigenvalues --   -0.45101  -0.44772  -0.44531  -0.44228  -0.43976
 Alpha  occ. eigenvalues --   -0.43235  -0.42985  -0.42305  -0.41532  -0.40599
 Alpha  occ. eigenvalues --   -0.40036  -0.39936  -0.39391  -0.38872  -0.38531
 Alpha  occ. eigenvalues --   -0.37894  -0.36796  -0.36604  -0.36152  -0.35919
 Alpha  occ. eigenvalues --   -0.34870  -0.34653  -0.34112  -0.34054  -0.32056
 Alpha  occ. eigenvalues --   -0.31342  -0.31294  -0.30558  -0.26998  -0.26518
 Alpha  occ. eigenvalues --   -0.23994  -0.23774  -0.23595  -0.21025  -0.20623
 Alpha  occ. eigenvalues --   -0.19872  -0.16641
 Alpha virt. eigenvalues --   -0.13573  -0.07385  -0.07119  -0.04556  -0.02303
 Alpha virt. eigenvalues --   -0.00940   0.00038   0.00302   0.00891   0.01036
 Alpha virt. eigenvalues --    0.02149   0.03071   0.03911   0.03986   0.04977

 Mulliken atomic charges:
              1
     1  C   -0.012329
     2  C    0.214292
     3  C   -0.134585
     4  C    0.039484
     5  C   -0.243213
     6  C    0.095819
     7  C    0.175116
     8  C    0.081427
     9  N   -0.261989
    10  C    0.087267
    11  C    0.048096
    12  C    0.156387
    13  C   -0.116131
    14  O   -0.320122
    15  C    0.129019
    16  C   -0.097781
    17  C    0.009216
    18  C    0.038772
    19  C    0.095677
    20  N   -0.314673
    21  C    0.081729
    22  C    0.186239
    23  C   -0.155429
    24  C    0.268272
    25  C   -0.010501
    26  C    0.109212
    27  C   -0.252006
    28  C    0.049577
    29  S    0.990130
    30  S    0.995029
    31  O   -0.517067
    32  O   -0.518007
    33  O   -0.521281
    34  O   -0.410498
    35  O   -0.325248
    36  O   -0.438431
    37  H   -0.022969
    38  H   -0.014081
    39  H    0.007009
    40  H    0.081064
    41  H    0.080734
    42  H    0.057025
    43  H    0.062559
    44  H    0.031001
    45  H    0.025764
    46  H    0.025396
    47  H    0.012296
    48  H   -0.026728
    49  H    0.031891
    50  H    0.026467
    51  H    0.047855
    52  H    0.045762
    53  H    0.079329
    54  H    0.079089
    55  H   -0.010933
    56  H    0.005004
    57  H   -0.015241
    58  H    0.190237
 Sum of Mulliken atomic charges =   0.00000

 Dipole moment (field-independent basis, Debye):
    X=            -22.3655    Y=             16.8967    Z=             -2.9901  Tot=             28.1896
 Quadrupole moment (field-independent basis, Debye-Ang):
   XX=           -433.5285   YY=           -229.1558   ZZ=           -223.9870
   XY=             74.8456   XZ=             -4.0991   YZ=             17.8700

 Normal termination of Gaussian 09 at Thu Mar 19 05:34:40 2015.
