 Gaussian 09, Revision B.01,
 Gaussian 09:  EM64L-G09RevB.01 12-Aug-2010

 ------------------------------------------------------
 # opt=modredundant B3LYP/cc-pVDZ Geom=PrintInputOrient
 ------------------------------------------------------

 -------------------------------
 CY3 Dihedral Scan at MP2/6-31G*
 -------------------------------
 Symbolic Z-matrix:
 Charge =  0 Multiplicity = 1

 SCF Done:  E(RB3LYP) =  -2398.26711824     A.U. after   22 cycles
 SCF Done:  E(RB3LYP) =  -2398.26712608     A.U. after    8 cycles
 Optimization completed.
    -- Stationary point found.
 SCF Done:  E(RB3LYP) =  -2398.25964746     A.U. after   14 cycles
 SCF Done:  E(RB3LYP) =  -2398.26582550     A.U. after   13 cycles
 SCF Done:  E(RB3LYP) =  -2398.26640854     A.U. after   12 cycles
 SCF Done:  E(RB3LYP) =  -2398.26649408     A.U. after   12 cycles
 SCF Done:  E(RB3LYP) =  -2398.26651876     A.U. after   12 cycles
 SCF Done:  E(RB3LYP) =  -2398.26652574     A.U. after   11 cycles
 SCF Done:  E(RB3LYP) =  -2398.26652785     A.U. after   10 cycles
 SCF Done:  E(RB3LYP) =  -2398.26652855     A.U. after    8 cycles
 SCF Done:  E(RB3LYP) =  -2398.26652886     A.U. after    7 cycles
 SCF Done:  E(RB3LYP) =  -2398.26652888     A.U. after    7 cycles
 SCF Done:  E(RB3LYP) =  -2398.26652889     A.U. after    7 cycles
 Optimization completed.
    -- Stationary point found.
 SCF Done:  E(RB3LYP) =  -2398.26005578     A.U. after   14 cycles
 SCF Done:  E(RB3LYP) =  -2398.26559573     A.U. after   13 cycles
 SCF Done:  E(RB3LYP) =  -2398.26589753     A.U. after   13 cycles
 SCF Done:  E(RB3LYP) =  -2398.26590039     A.U. after   12 cycles
 SCF Done:  E(RB3LYP) =  -2398.26590498     A.U. after   12 cycles
 SCF Done:  E(RB3LYP) =  -2398.26590666     A.U. after   11 cycles
 SCF Done:  E(RB3LYP) =  -2398.26590679     A.U. after    7 cycles
 Optimization completed.
    -- Stationary point found.

                         Standard orientation:
 ---------------------------------------------------------------------
 Center     Atomic      Atomic             Coordinates (Angstroms)
 Number     Number       Type             X           Y           Z
 ---------------------------------------------------------------------
      1          6           0       -6.120091    1.131072    0.280162
      2          6           0       -4.770071    0.792935    0.162846
      3          6           0       -4.331302   -0.524249   -0.063122
      4          6           0       -5.254846   -1.549279   -0.180585
      5          6           0       -6.617610   -1.234991   -0.047514
      6          6           0       -7.040872    0.087195    0.167172
      7          6           0       -2.823756   -0.504914   -0.151172
      8          6           0       -2.491104    0.952076    0.071939
      9          7           0       -3.633525    1.634375    0.226002
     10          6           0       -3.693423    3.086402    0.437712
     11          6           0       -2.413446    3.760799   -0.050917
     12          6           0       -1.183191    3.041686    0.507132
     13          6           0       -1.219373    1.574199    0.130387
     14          8           0       -0.013932    3.756967    0.114436
     15          6           0        1.125052    3.084817   -0.424512
     16          6           0        1.186184    1.593486   -0.150324
     17          6           0       -0.037425    0.889015   -0.052861
     18          6           0        2.374395    3.783741    0.115446
     19          6           0        3.644379    3.134727   -0.434077
     20          7           0        3.598369    1.684976   -0.241387
     21          6           0        2.421804    0.984988   -0.107457
     22          6           0        2.758843   -0.482651    0.080391
     23          6           0        4.267819   -0.491305   -0.009507
     24          6           0        4.708154    0.833420   -0.206366
     25          6           0        6.058571    1.155888   -0.349419
     26          6           0        6.985639    0.109736   -0.275299
     27          6           0        6.546069   -1.197726   -0.060877
     28          6           0        5.184826   -1.524665    0.063094
     29         16           0       -7.856473   -2.595854   -0.117059
     30         16           0        7.756262   -2.514854    0.013605
     31          8           0       -7.982129   -2.942996    1.337425
     32          8           0       -9.056914   -1.937143   -0.724055
     33          8           0       -7.173306   -3.629475   -0.962028
     34          8           0        9.023063   -2.032473   -0.560449
     35          8           0        7.929350   -2.610427    1.668868
     36          8           0        7.141118   -3.789761   -0.415061
     37          1           0       -6.451137    2.157252    0.450991
     38          1           0       -4.981301   -2.586852   -0.382946
     39          1           0       -8.114546    0.273053    0.228166
     40          1           0       -2.450770   -0.846438   -1.131107
     41          1           0       -2.339812   -1.135897    0.613350
     42          1           0       -3.865183    3.267219    1.512579
     43          1           0       -4.570063    3.466553   -0.104131
     44          1           0       -2.411408    4.812504    0.269410
     45          1           0       -2.368833    3.745362   -1.152060
     46          1           0       -1.226176    3.090014    1.614953
     47          1           0        1.090342    3.216735   -1.525808
     48          1           0       -0.045316   -0.200771   -0.143234
     49          1           0        2.360429    3.722111    1.215501
     50          1           0        2.359121    4.847941   -0.159993
     51          1           0        4.529213    3.526223    0.088627
     52          1           0        3.772336    3.351687   -1.510076
     53          1           0        2.285500   -1.103044   -0.699181
     54          1           0        2.395048   -0.856153    1.051487
     55          1           0        6.393880    2.178196   -0.525748
     56          1           0        8.052306    0.301199   -0.393869
     57          1           0        4.881146   -2.563525    0.198819
     58          1           0        8.025328   -3.563432    1.860507
 ---------------------------------------------------------------------

 The electronic state is 1-A.
 Alpha  occ. eigenvalues --  -89.14979 -89.01761 -19.21152 -19.19486 -19.16701
 Alpha  occ. eigenvalues --  -19.16604 -19.02827 -19.02798 -19.02737 -14.45838
 Alpha  occ. eigenvalues --  -14.44713 -10.30876 -10.30846 -10.30043 -10.30026
 Alpha  occ. eigenvalues --  -10.29546 -10.29544 -10.29092 -10.27081 -10.26596
 Alpha  occ. eigenvalues --  -10.26425 -10.26003 -10.25837 -10.25642 -10.25434
 Alpha  occ. eigenvalues --  -10.25419 -10.25368 -10.25305 -10.24845 -10.24765
 Alpha  occ. eigenvalues --  -10.24666 -10.22172 -10.21453 -10.19580 -10.19388
 Alpha  occ. eigenvalues --  -10.18923  -8.18142  -8.04596  -6.14566  -6.14410
 Alpha  occ. eigenvalues --   -6.14271  -6.00927  -6.00900  -6.00891  -1.15811
 Alpha  occ. eigenvalues --   -1.09087  -1.06134  -1.06044  -1.05299  -1.03101
 Alpha  occ. eigenvalues --   -1.01662  -0.92592  -0.89756  -0.89090  -0.88403
 Alpha  occ. eigenvalues --   -0.88133  -0.87763  -0.86872  -0.85169  -0.82530
 Alpha  occ. eigenvalues --   -0.81592  -0.80046  -0.77603  -0.77175  -0.74935
 Alpha  occ. eigenvalues --   -0.74478  -0.73276  -0.71384  -0.68276  -0.68091
 Alpha  occ. eigenvalues --   -0.66454  -0.65287  -0.64711  -0.62586  -0.61661
 Alpha  occ. eigenvalues --   -0.59792  -0.58692  -0.57888  -0.57593  -0.57161
 Alpha  occ. eigenvalues --   -0.56113  -0.55117  -0.54536  -0.54207  -0.53192
 Alpha  occ. eigenvalues --   -0.52611  -0.52347  -0.51371  -0.50902  -0.50195
 Alpha  occ. eigenvalues --   -0.49685  -0.49197  -0.48723  -0.48379  -0.47829
 Alpha  occ. eigenvalues --   -0.47714  -0.46795  -0.46516  -0.45892  -0.45620
 Alpha  occ. eigenvalues --   -0.45145  -0.44670  -0.44580  -0.44161  -0.43940
 Alpha  occ. eigenvalues --   -0.43385  -0.42849  -0.42055  -0.41826  -0.40703
 Alpha  occ. eigenvalues --   -0.39924  -0.39844  -0.39445  -0.38948  -0.38371
 Alpha  occ. eigenvalues --   -0.38128  -0.36662  -0.36351  -0.36201  -0.35895
 Alpha  occ. eigenvalues --   -0.34980  -0.34727  -0.34198  -0.34143  -0.32081
 Alpha  occ. eigenvalues --   -0.31421  -0.31017  -0.30497  -0.27188  -0.26724
 Alpha  occ. eigenvalues --   -0.23972  -0.23695  -0.23519  -0.20905  -0.20641
 Alpha  occ. eigenvalues --   -0.19679  -0.16528
 Alpha virt. eigenvalues --   -0.13721  -0.07464  -0.07224  -0.04557  -0.02090
 Alpha virt. eigenvalues --   -0.00531   0.00016   0.00292   0.00841   0.00989
 Alpha virt. eigenvalues --    0.02204   0.03010   0.04007   0.04166   0.05080

 Mulliken atomic charges:
              1
     1  C   -0.009827
     2  C    0.223016
     3  C   -0.129854
     4  C    0.041555
     5  C   -0.243112
     6  C    0.112322
     7  C    0.179098
     8  C    0.086862
     9  N   -0.266100
    10  C    0.090144
    11  C    0.042574
    12  C    0.165348
    13  C   -0.120790
    14  O   -0.334001
    15  C    0.162748
    16  C   -0.135737
    17  C    0.014592
    18  C    0.041178
    19  C    0.093130
    20  N   -0.315407
    21  C    0.084802
    22  C    0.184527
    23  C   -0.154078
    24  C    0.268027
    25  C   -0.010187
    26  C    0.108744
    27  C   -0.251766
    28  C    0.050823
    29  S    0.986315
    30  S    0.994435
    31  O   -0.517104
    32  O   -0.519944
    33  O   -0.524643
    34  O   -0.410723
    35  O   -0.324992
    36  O   -0.437390
    37  H   -0.027341
    38  H   -0.024913
    39  H   -0.006372
    40  H    0.082440
    41  H    0.080069
    42  H    0.057687
    43  H    0.060934
    44  H    0.030192
    45  H    0.028032
    46  H    0.023124
    47  H    0.018023
    48  H   -0.025590
    49  H    0.026373
    50  H    0.028018
    51  H    0.047940
    52  H    0.046699
    53  H    0.080247
    54  H    0.079219
    55  H   -0.010546
    56  H    0.005410
    57  H   -0.014776
    58  H    0.190542
 Sum of Mulliken atomic charges =   0.00000

 Dipole moment (field-independent basis, Debye):
    X=             22.8398    Y=             17.0446    Z=              1.8790  Tot=             28.5605
 Quadrupole moment (field-independent basis, Debye-Ang):
   XX=           -435.9017   YY=           -228.1807   ZZ=           -224.8007
   XY=            -76.5707   XZ=              5.1641   YZ=             -9.3128

 Normal termination of Gaussian 09 at Thu Mar 19 01:56:24 2015.
