 Gaussian 09, Revision B.01,
 Gaussian 09:  EM64L-G09RevB.01 12-Aug-2010

 ------------------------------------------------------
 # opt=modredundant B3LYP/cc-pVDZ Geom=PrintInputOrient
 ------------------------------------------------------

 -------------------------------
 CY3 Dihedral Scan at MP2/6-31G*
 -------------------------------
 Symbolic Z-matrix:
 Charge =  0 Multiplicity = 1

 SCF Done:  E(RB3LYP) =  -2398.26711824     A.U. after   22 cycles
 SCF Done:  E(RB3LYP) =  -2398.26712609     A.U. after    8 cycles
 Optimization completed.
    -- Stationary point found.
 SCF Done:  E(RB3LYP) =  -2398.26394471     A.U. after   13 cycles
 SCF Done:  E(RB3LYP) =  -2398.26287462     A.U. after   13 cycles
 SCF Done:  E(RB3LYP) =  -2398.26456684     A.U. after   13 cycles
 SCF Done:  E(RB3LYP) =  -2398.26464576     A.U. after   11 cycles
 SCF Done:  E(RB3LYP) =  -2398.26465511     A.U. after   10 cycles
 SCF Done:  E(RB3LYP) =  -2398.26465710     A.U. after    8 cycles
 SCF Done:  E(RB3LYP) =  -2398.26465755     A.U. after    8 cycles
 SCF Done:  E(RB3LYP) =  -2398.26465783     A.U. after    8 cycles
 Optimization completed.
    -- Stationary point found.
 SCF Done:  E(RB3LYP) =  -2398.25630794     A.U. after   12 cycles
 SCF Done:  E(RB3LYP) =  -2398.25733324     A.U. after   13 cycles
 SCF Done:  E(RB3LYP) =  -2398.25735170     A.U. after   11 cycles
 SCF Done:  E(RB3LYP) =  -2398.25735712     A.U. after   12 cycles
 SCF Done:  E(RB3LYP) =  -2398.25735919     A.U. after   12 cycles
 SCF Done:  E(RB3LYP) =  -2398.25736104     A.U. after   11 cycles
 SCF Done:  E(RB3LYP) =  -2398.25736163     A.U. after    8 cycles
 SCF Done:  E(RB3LYP) =  -2398.25736193     A.U. after   11 cycles
 SCF Done:  E(RB3LYP) =  -2398.25736195     A.U. after    7 cycles
 SCF Done:  E(RB3LYP) =  -2398.25736198     A.U. after    7 cycles
 Optimization completed.
    -- Stationary point found.

                         Standard orientation:
 ---------------------------------------------------------------------
 Center     Atomic      Atomic             Coordinates (Angstroms)
 Number     Number       Type             X           Y           Z
 ---------------------------------------------------------------------
      1          6           0       -6.094284    1.201252    0.227228
      2          6           0       -4.756883    0.800671    0.208226
      3          6           0       -4.364622   -0.540277    0.043673
      4          6           0       -5.324348   -1.526184   -0.110162
      5          6           0       -6.677442   -1.148448   -0.075401
      6          6           0       -7.052753    0.195885    0.079334
      7          6           0       -2.855001   -0.588810    0.050445
      8          6           0       -2.472192    0.858145    0.256919
      9          7           0       -3.589681    1.594404    0.321840
     10          6           0       -3.609239    3.059524    0.452108
     11          6           0       -2.257202    3.671616    0.079618
     12          6           0       -1.139750    2.894520    0.786308
     13          6           0       -1.182900    1.439007    0.363934
     14          8           0        0.134651    3.515879    0.675227
     15          6           0        1.077065    2.962650   -0.244166
     16          6           0        1.196043    1.455888   -0.097979
     17          6           0       -0.018466    0.750475    0.094129
     18          6           0        2.410802    3.650954    0.039938
     19          6           0        3.547941    3.010367   -0.754233
     20          7           0        3.568200    1.566090   -0.526810
     21          6           0        2.421504    0.851380   -0.261310
     22          6           0        2.782502   -0.620513   -0.199337
     23          6           0        4.277354   -0.598309   -0.425963
     24          6           0        4.659265    0.719101   -0.765670
     25          6           0        6.006035    1.054136   -0.950620
     26          6           0        6.973658    0.127981   -0.550881
     27          6           0        6.585333   -1.165968   -0.195110
     28          6           0        5.237927   -1.562603   -0.170096
     29         16           0       -7.968707   -2.456034   -0.198838
     30         16           0        7.845378   -2.360078    0.238620
     31          8           0       -8.134744   -2.830870    1.244568
     32          8           0       -9.130396   -1.737977   -0.813854
     33          8           0       -7.308765   -3.496595   -1.053556
     34          8           0        9.159418   -1.840413   -0.174970
     35          8           0        7.731872   -2.253721    1.899542
     36          8           0        7.398023   -3.722551   -0.121994
     37          1           0       -6.388340    2.245367    0.350565
     38          1           0       -5.083461   -2.578874   -0.271438
     39          1           0       -8.119082    0.428108    0.065453
     40          1           0       -2.438924   -0.975776   -0.894606
     41          1           0       -2.446148   -1.215642    0.860851
     42          1           0       -3.886949    3.302144    1.491717
     43          1           0       -4.409735    3.437819   -0.198545
     44          1           0       -2.241878    4.725644    0.392533
     45          1           0       -2.108426    3.639294   -1.012165
     46          1           0       -1.354246    2.921301    1.871956
     47          1           0        0.752327    3.189387   -1.281317
     48          1           0       -0.046855   -0.333649   -0.047616
     49          1           0        2.610820    3.567549    1.120064
     50          1           0        2.348345    4.720587   -0.205932
     51          1           0        4.515697    3.423479   -0.434509
     52          1           0        3.442228    3.209584   -1.836503
     53          1           0        2.245168   -1.186436   -0.980601
     54          1           0        2.508553   -1.068247    0.768168
     55          1           0        6.306829    2.065807   -1.228008
     56          1           0        8.034178    0.378052   -0.586730
     57          1           0        4.972189   -2.584168    0.105611
     58          1           0        7.888774   -3.161666    2.224039
 ---------------------------------------------------------------------

 The electronic state is 1-A.
 Alpha  occ. eigenvalues --  -89.14929 -89.01809 -19.21122 -19.19733 -19.16632
 Alpha  occ. eigenvalues --  -19.16564 -19.02864 -19.02854 -19.02784 -14.46014
 Alpha  occ. eigenvalues --  -14.44680 -10.31028 -10.30759 -10.30033 -10.29961
 Alpha  occ. eigenvalues --  -10.29567 -10.29484 -10.29297 -10.26971 -10.26531
 Alpha  occ. eigenvalues --  -10.26511 -10.25890 -10.25801 -10.25627 -10.25505
 Alpha  occ. eigenvalues --  -10.25484 -10.25407 -10.25380 -10.24915 -10.24908
 Alpha  occ. eigenvalues --  -10.24629 -10.22256 -10.21536 -10.19693 -10.19414
 Alpha  occ. eigenvalues --  -10.18985  -8.18093  -8.04644  -6.14516  -6.14359
 Alpha  occ. eigenvalues --   -6.14222  -6.00975  -6.00947  -6.00939  -1.15749
 Alpha  occ. eigenvalues --   -1.09487  -1.06200  -1.06001  -1.05253  -1.03040
 Alpha  occ. eigenvalues --   -1.01712  -0.92508  -0.89776  -0.89065  -0.88453
 Alpha  occ. eigenvalues --   -0.88182  -0.87716  -0.86847  -0.85252  -0.82490
 Alpha  occ. eigenvalues --   -0.81564  -0.80112  -0.77645  -0.77102  -0.75028
 Alpha  occ. eigenvalues --   -0.74384  -0.73328  -0.71337  -0.68530  -0.67998
 Alpha  occ. eigenvalues --   -0.66472  -0.65254  -0.64586  -0.62564  -0.61693
 Alpha  occ. eigenvalues --   -0.59941  -0.58665  -0.58041  -0.57683  -0.57131
 Alpha  occ. eigenvalues --   -0.55957  -0.55138  -0.54482  -0.54232  -0.53264
 Alpha  occ. eigenvalues --   -0.52611  -0.52460  -0.51519  -0.50630  -0.50085
 Alpha  occ. eigenvalues --   -0.49679  -0.49210  -0.48690  -0.48438  -0.47842
 Alpha  occ. eigenvalues --   -0.47732  -0.46794  -0.46378  -0.45971  -0.45732
 Alpha  occ. eigenvalues --   -0.45171  -0.44791  -0.44674  -0.44381  -0.44015
 Alpha  occ. eigenvalues --   -0.43273  -0.42839  -0.42378  -0.41592  -0.40570
 Alpha  occ. eigenvalues --   -0.40088  -0.39978  -0.39374  -0.38947  -0.38402
 Alpha  occ. eigenvalues --   -0.38095  -0.36813  -0.36397  -0.36182  -0.35951
 Alpha  occ. eigenvalues --   -0.34851  -0.34717  -0.34133  -0.34097  -0.32008
 Alpha  occ. eigenvalues --   -0.31457  -0.31264  -0.30493  -0.27145  -0.26784
 Alpha  occ. eigenvalues --   -0.23997  -0.23739  -0.23579  -0.20938  -0.20706
 Alpha  occ. eigenvalues --   -0.19741  -0.16575
 Alpha virt. eigenvalues --   -0.13766  -0.07848  -0.07294  -0.04683  -0.02162
 Alpha virt. eigenvalues --   -0.00608  -0.00068   0.00205   0.00904   0.00977
 Alpha virt. eigenvalues --    0.02098   0.02507   0.03907   0.03965   0.04761

 Mulliken atomic charges:
              1
     1  C   -0.008831
     2  C    0.223290
     3  C   -0.131744
     4  C    0.045719
     5  C   -0.243127
     6  C    0.108793
     7  C    0.179015
     8  C    0.080860
     9  N   -0.265303
    10  C    0.088668
    11  C    0.047440
    12  C    0.158055
    13  C   -0.118627
    14  O   -0.320430
    15  C    0.130418
    16  C   -0.092264
    17  C    0.009090
    18  C    0.038694
    19  C    0.096024
    20  N   -0.296003
    21  C    0.085401
    22  C    0.172531
    23  C   -0.149443
    24  C    0.229746
    25  C   -0.005328
    26  C    0.101993
    27  C   -0.251851
    28  C    0.068500
    29  S    0.986678
    30  S    0.992430
    31  O   -0.516915
    32  O   -0.519990
    33  O   -0.524853
    34  O   -0.411747
    35  O   -0.326729
    36  O   -0.436259
    37  H   -0.027612
    38  H   -0.024805
    39  H   -0.006030
    40  H    0.081544
    41  H    0.081540
    42  H    0.058339
    43  H    0.061068
    44  H    0.031408
    45  H    0.024624
    46  H    0.026845
    47  H    0.011750
    48  H   -0.025108
    49  H    0.033126
    50  H    0.026616
    51  H    0.045370
    52  H    0.044833
    53  H    0.078996
    54  H    0.074622
    55  H   -0.005892
    56  H    0.009009
    57  H   -0.014297
    58  H    0.190153
 Sum of Mulliken atomic charges =   0.00000

 Dipole moment (field-independent basis, Debye):
    X=             22.6054    Y=             16.4676    Z=              1.1790  Tot=             27.9925
 Quadrupole moment (field-independent basis, Debye-Ang):
   XX=           -449.7231   YY=           -225.9284   ZZ=           -222.8623
   XY=            -73.0099   XZ=             -2.4153   YZ=            -12.4640

 Normal termination of Gaussian 09 at Sat Mar 21 03:09:10 2015.
