 Gaussian 09, Revision B.01,
 Gaussian 09:  EM64L-G09RevB.01 12-Aug-2010

 ------------------------------------------------------
 # opt=modredundant B3LYP/cc-pVDZ Geom=PrintInputOrient
 ------------------------------------------------------

 -------------------------------
 CY3 Dihedral Scan at MP2/6-31G*
 -------------------------------
 Symbolic Z-matrix:
 Charge =  0 Multiplicity = 1

 SCF Done:  E(RB3LYP) =  -2398.26711824     A.U. after   22 cycles
 SCF Done:  E(RB3LYP) =  -2398.26712599     A.U. after    9 cycles
 Optimization completed.
    -- Stationary point found.
 SCF Done:  E(RB3LYP) =  -2398.26383838     A.U. after   16 cycles
 SCF Done:  E(RB3LYP) =  -2398.26344871     A.U. after   13 cycles
 SCF Done:  E(RB3LYP) =  -2398.26427314     A.U. after   12 cycles
 SCF Done:  E(RB3LYP) =  -2398.26430683     A.U. after   11 cycles
 SCF Done:  E(RB3LYP) =  -2398.26431328     A.U. after   11 cycles
 SCF Done:  E(RB3LYP) =  -2398.26431605     A.U. after   10 cycles
 SCF Done:  E(RB3LYP) =  -2398.26431703     A.U. after    8 cycles
 SCF Done:  E(RB3LYP) =  -2398.26431724     A.U. after    7 cycles
 SCF Done:  E(RB3LYP) =  -2398.26431733     A.U. after    7 cycles
 Optimization completed.
    -- Stationary point found.
 SCF Done:  E(RB3LYP) =  -2398.25427629     A.U. after   16 cycles
 SCF Done:  E(RB3LYP) =  -2398.25545031     A.U. after   12 cycles
 SCF Done:  E(RB3LYP) =  -2398.25547507     A.U. after   12 cycles
 SCF Done:  E(RB3LYP) =  -2398.25547728     A.U. after   10 cycles
 SCF Done:  E(RB3LYP) =  -2398.25547765     A.U. after   10 cycles
 SCF Done:  E(RB3LYP) =  -2398.25547771     A.U. after    8 cycles
 SCF Done:  E(RB3LYP) =  -2398.25547773     A.U. after    8 cycles
 Optimization completed.
    -- Stationary point found.

                         Standard orientation:
 ---------------------------------------------------------------------
 Center     Atomic      Atomic             Coordinates (Angstroms)
 Number     Number       Type             X           Y           Z
 ---------------------------------------------------------------------
      1          6           0       -6.127038    1.173934   -0.011238
      2          6           0       -4.774815    0.817578    0.016332
      3          6           0       -4.368821   -0.530252    0.094467
      4          6           0       -5.272964   -1.508611   -0.289162
      5          6           0       -6.634215   -1.218102   -0.079077
      6          6           0       -7.052314    0.122908    0.014417
      7          6           0       -2.857927   -0.547494    0.177200
      8          6           0       -2.503272    0.920883    0.217343
      9          7           0       -3.629469    1.639277    0.105353
     10          6           0       -3.674533    3.108204    0.040487
     11          6           0       -2.301117    3.695232   -0.291977
     12          6           0       -1.243330    3.033749    0.600935
     13          6           0       -1.233836    1.537080    0.357044
     14          8           0        0.030312    3.661930    0.529781
     15          6           0        1.049195    3.030591   -0.246700
     16          6           0        1.173634    1.552425    0.076074
     17          6           0       -0.043006    0.848168    0.256330
     18          6           0        2.347934    3.772935    0.062817
     19          6           0        3.552775    3.079174   -0.571094
     20          7           0        3.565312    1.660738   -0.217393
     21          6           0        2.415868    0.959753    0.067651
     22          6           0        2.792643   -0.486004    0.332361
     23          6           0        4.287120   -0.486955    0.102888
     24          6           0        4.686414    0.824260   -0.228249
     25          6           0        6.012099    1.146329   -0.523158
     26          6           0        6.958001    0.116236   -0.464161
     27          6           0        6.561069   -1.176079   -0.116489
     28          6           0        5.222635   -1.504497    0.159772
     29         16           0       -7.862267   -2.588648   -0.114082
     30         16           0        7.792792   -2.474089   -0.065651
     31          8           0       -7.806690   -3.058584    1.309139
     32          8           0       -9.136142   -1.914675   -0.520149
     33          8           0       -7.264223   -3.529747   -1.117734
     34          8           0        8.997289   -2.017381   -0.778097
     35          8           0        8.111490   -2.462938    1.570651
     36          8           0        7.162484   -3.780079   -0.356916
     37          1           0       -6.458250    2.214130   -0.031508
     38          1           0       -4.989217   -2.547869   -0.473035
     39          1           0       -8.125616    0.315935    0.059502
     40          1           0       -2.391086   -1.050508   -0.685714
     41          1           0       -2.483955   -1.053775    1.083442
     42          1           0       -4.043175    3.476763    1.012658
     43          1           0       -4.420499    3.381634   -0.718790
     44          1           0       -2.321855    4.780250   -0.114621
     45          1           0       -2.058216    3.529114   -1.354310
     46          1           0       -1.556083    3.188254    1.651431
     47          1           0        0.805673    3.136461   -1.324662
     48          1           0       -0.046587   -0.245431    0.238689
     49          1           0        2.464092    3.806058    1.157890
     50          1           0        2.289686    4.809745   -0.297812
     51          1           0        4.485387    3.536477   -0.210939
     52          1           0        3.539035    3.176619   -1.672278
     53          1           0        2.259460   -1.169898   -0.349127
     54          1           0        2.526142   -0.785264    1.359250
     55          1           0        6.313719    2.155944   -0.803107
     56          1           0        8.005473    0.307691   -0.697867
     57          1           0        4.948580   -2.533718    0.395353
     58          1           0        8.228654   -3.401818    1.813286
 ---------------------------------------------------------------------

 The electronic state is 1-A.
 Alpha  occ. eigenvalues --  -89.14924 -89.01893 -19.21095 -19.19687 -19.16643
 Alpha  occ. eigenvalues --  -19.16551 -19.02983 -19.02924 -19.02797 -14.45967
 Alpha  occ. eigenvalues --  -14.44576 -10.30911 -10.30734 -10.29976 -10.29915
 Alpha  occ. eigenvalues --  -10.29532 -10.29482 -10.29255 -10.26990 -10.26520
 Alpha  occ. eigenvalues --  -10.26443 -10.25922 -10.25769 -10.25571 -10.25465
 Alpha  occ. eigenvalues --  -10.25384 -10.25340 -10.25266 -10.24914 -10.24863
 Alpha  occ. eigenvalues --  -10.24535 -10.22219 -10.21414 -10.19786 -10.19323
 Alpha  occ. eigenvalues --  -10.19055  -8.18086  -8.04724  -6.14510  -6.14354
 Alpha  occ. eigenvalues --   -6.14214  -6.01057  -6.01027  -6.01016  -1.15757
 Alpha  occ. eigenvalues --   -1.09449  -1.06158  -1.06002  -1.05243  -1.03044
 Alpha  occ. eigenvalues --   -1.01779  -0.92515  -0.89726  -0.89021  -0.88531
 Alpha  occ. eigenvalues --   -0.88239  -0.87719  -0.86807  -0.85200  -0.82481
 Alpha  occ. eigenvalues --   -0.81563  -0.80021  -0.77593  -0.77061  -0.74948
 Alpha  occ. eigenvalues --   -0.74369  -0.73254  -0.71275  -0.68487  -0.67982
 Alpha  occ. eigenvalues --   -0.66428  -0.65248  -0.64654  -0.62455  -0.61532
 Alpha  occ. eigenvalues --   -0.59906  -0.58673  -0.57989  -0.57663  -0.57063
 Alpha  occ. eigenvalues --   -0.55962  -0.55026  -0.54502  -0.54169  -0.53212
 Alpha  occ. eigenvalues --   -0.52533  -0.52441  -0.51320  -0.50846  -0.50105
 Alpha  occ. eigenvalues --   -0.49724  -0.49164  -0.48690  -0.48337  -0.47756
 Alpha  occ. eigenvalues --   -0.47730  -0.46722  -0.46329  -0.45894  -0.45722
 Alpha  occ. eigenvalues --   -0.45044  -0.44754  -0.44452  -0.44243  -0.43936
 Alpha  occ. eigenvalues --   -0.43231  -0.43016  -0.42242  -0.41557  -0.40643
 Alpha  occ. eigenvalues --   -0.40095  -0.39962  -0.39351  -0.38867  -0.38481
 Alpha  occ. eigenvalues --   -0.38062  -0.36799  -0.36460  -0.36172  -0.35961
 Alpha  occ. eigenvalues --   -0.34962  -0.34507  -0.34109  -0.34064  -0.32042
 Alpha  occ. eigenvalues --   -0.31377  -0.31321  -0.30582  -0.26980  -0.26424
 Alpha  occ. eigenvalues --   -0.23988  -0.23775  -0.23597  -0.21017  -0.20713
 Alpha  occ. eigenvalues --   -0.19812  -0.16632
 Alpha virt. eigenvalues --   -0.13633  -0.07409  -0.07160  -0.04577  -0.02629
 Alpha virt. eigenvalues --   -0.00635   0.00010   0.00280   0.00861   0.01016
 Alpha virt. eigenvalues --    0.02070   0.03030   0.03911   0.04021   0.04906

 Mulliken atomic charges:
              1
     1  C   -0.016315
     2  C    0.211220
     3  C   -0.150275
     4  C    0.070369
     5  C   -0.250356
     6  C    0.110770
     7  C    0.155987
     8  C    0.087719
     9  N   -0.253726
    10  C    0.089091
    11  C    0.047336
    12  C    0.157419
    13  C   -0.122652
    14  O   -0.320110
    15  C    0.129331
    16  C   -0.098131
    17  C    0.010579
    18  C    0.038724
    19  C    0.095780
    20  N   -0.314288
    21  C    0.081936
    22  C    0.186624
    23  C   -0.155953
    24  C    0.268375
    25  C   -0.010348
    26  C    0.108683
    27  C   -0.251956
    28  C    0.050983
    29  S    0.990104
    30  S    0.994530
    31  O   -0.517178
    32  O   -0.517385
    33  O   -0.523165
    34  O   -0.410923
    35  O   -0.325121
    36  O   -0.437818
    37  H   -0.028821
    38  H   -0.003387
    39  H   -0.001831
    40  H    0.078498
    41  H    0.077915
    42  H    0.058224
    43  H    0.060838
    44  H    0.031352
    45  H    0.024573
    46  H    0.026504
    47  H    0.011667
    48  H   -0.026337
    49  H    0.032345
    50  H    0.026482
    51  H    0.048026
    52  H    0.045509
    53  H    0.079150
    54  H    0.080005
    55  H   -0.010883
    56  H    0.005181
    57  H   -0.015236
    58  H    0.190368
 Sum of Mulliken atomic charges =   0.00000

 Dipole moment (field-independent basis, Debye):
    X=             22.5503    Y=             17.1172    Z=              1.3209  Tot=             28.3418
 Quadrupole moment (field-independent basis, Debye-Ang):
   XX=           -434.8174   YY=           -227.9902   ZZ=           -224.9791
   XY=            -77.0041   XZ=              8.0193   YZ=            -14.0464

 Normal termination of Gaussian 09 at Sat Mar 21 03:20:13 2015.
