 Gaussian 09, Revision B.01,
 Gaussian 09:  EM64L-G09RevB.01 12-Aug-2010

 ------------------------------------------------------
 # opt=modredundant B3LYP/cc-pVDZ Geom=PrintInputOrient
 ------------------------------------------------------

 -------------------------------
 CY3 Dihedral Scan at MP2/6-31G*
 -------------------------------
 Symbolic Z-matrix:
 Charge =  0 Multiplicity = 1

 SCF Done:  E(RB3LYP) =  -2398.26711824     A.U. after   22 cycles
 SCF Done:  E(RB3LYP) =  -2398.26712605     A.U. after    8 cycles
 Optimization completed.
    -- Stationary point found.
 SCF Done:  E(RB3LYP) =  -2398.26367310     A.U. after   16 cycles
 SCF Done:  E(RB3LYP) =  -2398.26382696     A.U. after   11 cycles
 SCF Done:  E(RB3LYP) =  -2398.26527647     A.U. after   13 cycles
 SCF Done:  E(RB3LYP) =  -2398.26542585     A.U. after   11 cycles
 SCF Done:  E(RB3LYP) =  -2398.26545257     A.U. after   11 cycles
 SCF Done:  E(RB3LYP) =  -2398.26545842     A.U. after   11 cycles
 SCF Done:  E(RB3LYP) =  -2398.26546137     A.U. after   10 cycles
 SCF Done:  E(RB3LYP) =  -2398.26546283     A.U. after    8 cycles
 Optimization completed.
    -- Stationary point found.
 SCF Done:  E(RB3LYP) =  -2398.26088942     A.U. after   13 cycles
 SCF Done:  E(RB3LYP) =  -2398.26089655     A.U. after   12 cycles
 SCF Done:  E(RB3LYP) =  -2398.26089880     A.U. after   11 cycles
 SCF Done:  E(RB3LYP) =  -2398.26089974     A.U. after    8 cycles
 SCF Done:  E(RB3LYP) =  -2398.26089998     A.U. after    7 cycles
 SCF Done:  E(RB3LYP) =  -2398.26090010     A.U. after    7 cycles
 SCF Done:  E(RB3LYP) =  -2398.26090028     A.U. after    7 cycles
 SCF Done:  E(RB3LYP) =  -2398.26090046     A.U. after    7 cycles
 SCF Done:  E(RB3LYP) =  -2398.26090072     A.U. after    8 cycles
 SCF Done:  E(RB3LYP) =  -2398.26090083     A.U. after    7 cycles
 Optimization completed.
    -- Stationary point found.

                         Standard orientation:
 ---------------------------------------------------------------------
 Center     Atomic      Atomic             Coordinates (Angstroms)
 Number     Number       Type             X           Y           Z
 ---------------------------------------------------------------------
      1          6           0       -6.065277    1.139143   -0.550359
      2          6           0       -4.754413    0.738959   -0.280218
      3          6           0       -4.415492   -0.578873    0.072058
      4          6           0       -5.403750   -1.546298    0.160267
      5          6           0       -6.731509   -1.162085   -0.086159
      6          6           0       -7.052596    0.157692   -0.447391
      7          6           0       -2.922952   -0.632185    0.280738
      8          6           0       -2.475568    0.766736   -0.081641
      9          7           0       -3.564449    1.506219   -0.325495
     10          6           0       -3.575410    2.968333   -0.514350
     11          6           0       -2.172402    3.590616   -0.483599
     12          6           0       -1.290375    2.848019    0.535492
     13          6           0       -1.211498    1.397513    0.110520
     14          8           0       -0.033965    3.467360    0.762610
     15          6           0        1.081134    2.994920    0.002632
     16          6           0        1.208792    1.483496    0.067125
     17          6           0       -0.005049    0.745853    0.025044
     18          6           0        2.319123    3.674826    0.584374
     19          6           0        3.602325    3.121157   -0.033999
     20          7           0        3.613961    1.661597    0.041298
     21          6           0        2.458118    0.911537    0.073085
     22          6           0        2.844709   -0.556347    0.096390
     23          6           0        4.353667   -0.503677    0.013099
     24          6           0        4.749944    0.849322   -0.021222
     25          6           0        6.089504    1.229185   -0.119903
     26          6           0        7.050184    0.212426   -0.170951
     27          6           0        6.653958   -1.124992   -0.119326
     28          6           0        5.303751   -1.507710   -0.038807
     29         16           0       -8.074319   -2.409457    0.107983
     30         16           0        7.905816   -2.400514   -0.209933
     31          8           0       -8.510341   -2.144925    1.518539
     32          8           0       -9.058200   -2.015731   -0.950537
     33          8           0       -7.358838   -3.709621   -0.107611
     34          8           0        9.157213   -1.806555   -0.708506
     35          8           0        8.081387   -2.709522    1.418892
     36          8           0        7.333883   -3.627723   -0.805834
     37          1           0       -6.314991    2.161931   -0.838846
     38          1           0       -5.205577   -2.592096    0.404129
     39          1           0       -8.097952    0.385333   -0.662987
     40          1           0       -2.425822   -1.413184   -0.318370
     41          1           0       -2.643653   -0.815138    1.332892
     42          1           0       -4.204395    3.374651    0.294227
     43          1           0       -4.090487    3.183273   -1.462471
     44          1           0       -2.263295    4.653566   -0.215110
     45          1           0       -1.702522    3.534343   -1.478351
     46          1           0       -1.790425    2.882675    1.520572
     47          1           0        0.954626    3.296054   -1.058454
     48          1           0        0.018405   -0.333606   -0.151194
     49          1           0        2.318439    3.502105    1.672408
     50          1           0        2.270930    4.760553    0.419002
     51          1           0        4.478688    3.505550    0.507566
     52          1           0        3.704201    3.430658   -1.090612
     53          1           0        2.393250   -1.102697   -0.748318
     54          1           0        2.493842   -1.046030    1.019598
     55          1           0        6.391670    2.275571   -0.169641
     56          1           0        8.109859    0.451264   -0.263038
     57          1           0        5.033310   -2.564505   -0.032992
     58          1           0        8.198742   -3.677104    1.482743
 ---------------------------------------------------------------------

 The electronic state is 1-A.
 Alpha  occ. eigenvalues --  -89.14842 -89.01847 -19.21016 -19.19782 -19.16563
 Alpha  occ. eigenvalues --  -19.16467 -19.02913 -19.02874 -19.02789 -14.46398
 Alpha  occ. eigenvalues --  -14.44308 -10.31293 -10.30517 -10.30152 -10.29896
 Alpha  occ. eigenvalues --  -10.29522 -10.29418 -10.29342 -10.26856 -10.26388
 Alpha  occ. eigenvalues --  -10.26383 -10.25777 -10.25682 -10.25649 -10.25586
 Alpha  occ. eigenvalues --  -10.25453 -10.25347 -10.25191 -10.25075 -10.24864
 Alpha  occ. eigenvalues --  -10.24372 -10.22429 -10.21662 -10.19733 -10.19594
 Alpha  occ. eigenvalues --  -10.19083  -8.18004  -8.04680  -6.14428  -6.14272
 Alpha  occ. eigenvalues --   -6.14131  -6.01012  -6.00983  -6.00974  -1.15673
 Alpha  occ. eigenvalues --   -1.09579  -1.06444  -1.05793  -1.05161  -1.02958
 Alpha  occ. eigenvalues --   -1.01747  -0.92379  -0.89794  -0.88952  -0.88485
 Alpha  occ. eigenvalues --   -0.88223  -0.87620  -0.86849  -0.85358  -0.82418
 Alpha  occ. eigenvalues --   -0.81454  -0.80168  -0.77689  -0.77087  -0.75108
 Alpha  occ. eigenvalues --   -0.74373  -0.73340  -0.71233  -0.68667  -0.67938
 Alpha  occ. eigenvalues --   -0.66474  -0.65266  -0.64562  -0.62490  -0.61714
 Alpha  occ. eigenvalues --   -0.59972  -0.58588  -0.57961  -0.57687  -0.57041
 Alpha  occ. eigenvalues --   -0.55904  -0.55226  -0.54556  -0.54137  -0.53237
 Alpha  occ. eigenvalues --   -0.52537  -0.52491  -0.51222  -0.50786  -0.50108
 Alpha  occ. eigenvalues --   -0.49647  -0.49167  -0.48646  -0.48462  -0.47735
 Alpha  occ. eigenvalues --   -0.47631  -0.46701  -0.46316  -0.46071  -0.45767
 Alpha  occ. eigenvalues --   -0.45234  -0.44912  -0.44727  -0.44259  -0.44032
 Alpha  occ. eigenvalues --   -0.43396  -0.42957  -0.42485  -0.41523  -0.40621
 Alpha  occ. eigenvalues --   -0.40118  -0.39970  -0.39286  -0.38758  -0.38475
 Alpha  occ. eigenvalues --   -0.37952  -0.36908  -0.36473  -0.36100  -0.36020
 Alpha  occ. eigenvalues --   -0.34922  -0.34759  -0.34056  -0.34016  -0.31960
 Alpha  occ. eigenvalues --   -0.31347  -0.31215  -0.30539  -0.27089  -0.26892
 Alpha  occ. eigenvalues --   -0.24000  -0.23775  -0.23615  -0.21010  -0.20714
 Alpha  occ. eigenvalues --   -0.19826  -0.16604
 Alpha virt. eigenvalues --   -0.13407  -0.07488  -0.07033  -0.04922  -0.02333
 Alpha virt. eigenvalues --   -0.00752  -0.00270   0.00246   0.00785   0.00893
 Alpha virt. eigenvalues --    0.01794   0.03121   0.03456   0.03927   0.04716

 Mulliken atomic charges:
              1
     1  C   -0.005262
     2  C    0.219803
     3  C   -0.127262
     4  C    0.037721
     5  C   -0.242623
     6  C    0.112606
     7  C    0.168678
     8  C    0.082144
     9  N   -0.253276
    10  C    0.084465
    11  C    0.054256
    12  C    0.149560
    13  C   -0.118957
    14  O   -0.316575
    15  C    0.123587
    16  C   -0.097939
    17  C    0.027633
    18  C    0.039843
    19  C    0.095746
    20  N   -0.316718
    21  C    0.080838
    22  C    0.185858
    23  C   -0.155572
    24  C    0.269460
    25  C   -0.011460
    26  C    0.108602
    27  C   -0.252267
    28  C    0.050412
    29  S    0.986547
    30  S    0.993871
    31  O   -0.517389
    32  O   -0.520133
    33  O   -0.524535
    34  O   -0.411452
    35  O   -0.324989
    36  O   -0.438662
    37  H   -0.028822
    38  H   -0.023279
    39  H   -0.005432
    40  H    0.075999
    41  H    0.085777
    42  H    0.062766
    43  H    0.063032
    44  H    0.031453
    45  H    0.023135
    46  H    0.025114
    47  H    0.011559
    48  H   -0.032209
    49  H    0.032910
    50  H    0.025870
    51  H    0.047720
    52  H    0.044113
    53  H    0.077926
    54  H    0.078843
    55  H   -0.011742
    56  H    0.004640
    57  H   -0.016064
    58  H    0.190129
 Sum of Mulliken atomic charges =   0.00000

 Dipole moment (field-independent basis, Debye):
    X=             22.9053    Y=             15.9267    Z=              0.1237  Tot=             27.8986
 Quadrupole moment (field-independent basis, Debye-Ang):
   XX=           -453.6353   YY=           -220.3450   ZZ=           -227.3460
   XY=            -73.8492   XZ=             21.6801   YZ=            -12.3823

 Normal termination of Gaussian 09 at Wed Mar 18 03:38:35 2015.
