 Gaussian 09, Revision B.01,
 Gaussian 09:  EM64L-G09RevB.01 12-Aug-2010

 ------------------------------------------------------
 # opt=modredundant B3LYP/cc-pVDZ Geom=PrintInputOrient
 ------------------------------------------------------

 -------------------------------
 CY3 Dihedral Scan at MP2/6-31G*
 -------------------------------
 Symbolic Z-matrix:
 Charge =  0 Multiplicity = 1

 SCF Done:  E(RB3LYP) =  -2398.26711824     A.U. after   22 cycles
 SCF Done:  E(RB3LYP) =  -2398.26712607     A.U. after    8 cycles
 Optimization completed.
    -- Stationary point found.
 SCF Done:  E(RB3LYP) =  -2398.26045884     A.U. after   13 cycles
 SCF Done:  E(RB3LYP) =  -2398.26059270     A.U. after   11 cycles
 SCF Done:  E(RB3LYP) =  -2398.26362400     A.U. after   12 cycles
 SCF Done:  E(RB3LYP) =  -2398.26428663     A.U. after   12 cycles
 SCF Done:  E(RB3LYP) =  -2398.26431750     A.U. after   11 cycles
 SCF Done:  E(RB3LYP) =  -2398.26432323     A.U. after   11 cycles
 SCF Done:  E(RB3LYP) =  -2398.26432455     A.U. after    8 cycles
 SCF Done:  E(RB3LYP) =  -2398.26432490     A.U. after    7 cycles
 SCF Done:  E(RB3LYP) =  -2398.26432509     A.U. after    8 cycles
 SCF Done:  E(RB3LYP) =  -2398.26432518     A.U. after    8 cycles
 SCF Done:  E(RB3LYP) =  -2398.26432521     A.U. after    7 cycles
 Optimization completed.
    -- Stationary point found.
 SCF Done:  E(RB3LYP) =  -2398.24983621     A.U. after   13 cycles
 SCF Done:  E(RB3LYP) =  -2398.25451270     A.U. after   12 cycles
 SCF Done:  E(RB3LYP) =  -2398.25506488     A.U. after   13 cycles
 SCF Done:  E(RB3LYP) =  -2398.25508947     A.U. after   12 cycles
 SCF Done:  E(RB3LYP) =  -2398.25509318     A.U. after   11 cycles
 SCF Done:  E(RB3LYP) =  -2398.25509464     A.U. after   11 cycles
 SCF Done:  E(RB3LYP) =  -2398.25509548     A.U. after    8 cycles
 Optimization completed.
    -- Stationary point found.

                         Standard orientation:
 ---------------------------------------------------------------------
 Center     Atomic      Atomic             Coordinates (Angstroms)
 Number     Number       Type             X           Y           Z
 ---------------------------------------------------------------------
      1          6           0       -6.079921    1.199545    0.366502
      2          6           0       -4.748146    0.788657    0.277979
      3          6           0       -4.375511   -0.543647    0.022523
      4          6           0       -5.350458   -1.510234   -0.156991
      5          6           0       -6.697319   -1.122666   -0.055525
      6          6           0       -7.053191    0.213444    0.191921
      7          6           0       -2.867188   -0.604764   -0.024404
      8          6           0       -2.463187    0.824878    0.249263
      9          7           0       -3.569771    1.564691    0.395777
     10          6           0       -3.571511    3.020745    0.608395
     11          6           0       -2.228206    3.643449    0.222587
     12          6           0       -1.094266    2.818807    0.843990
     13          6           0       -1.164287    1.390986    0.338279
     14          8           0        0.180829    3.436567    0.727897
     15          6           0        1.082891    2.936850   -0.259454
     16          6           0        1.195784    1.423012   -0.212639
     17          6           0       -0.019957    0.713331   -0.021655
     18          6           0        2.430726    3.604126    0.008471
     19          6           0        3.530201    3.020627   -0.880898
     20          7           0        3.547310    1.562382   -0.773498
     21          6           0        2.408337    0.832475   -0.464310
     22          6           0        2.801435   -0.623078   -0.599813
     23          6           0        4.283992   -0.542438   -0.298886
     24          6           0        4.693552    0.746913   -0.712708
     25          6           0        6.035122    1.095109   -0.848871
     26          6           0        6.989953    0.115358   -0.538402
     27          6           0        6.582899   -1.144545   -0.100846
     28          6           0        5.225772   -1.512490   -0.016787
     29         16           0       -8.007818   -2.406417   -0.218183
     30         16           0        7.830669   -2.364183    0.297083
     31          8           0       -8.159697   -2.842559    1.209470
     32          8           0       -9.166963   -1.644748   -0.783450
     33          8           0       -7.374763   -3.416296   -1.128080
     34          8           0        9.118360   -1.929736   -0.268009
     35          8           0        7.889723   -2.159623    1.950381
     36          8           0        7.295877   -3.724775    0.069440
     37          1           0       -6.357956    2.237059    0.561546
     38          1           0       -5.127438   -2.553851   -0.388035
     39          1           0       -8.116787    0.455640    0.227077
     40          1           0       -2.486296   -0.942253   -1.002683
     41          1           0       -2.438033   -1.279045    0.735915
     42          1           0       -3.809472    3.205942    1.669378
     43          1           0       -4.391659    3.439862    0.009406
     44          1           0       -2.191902    4.677580    0.594533
     45          1           0       -2.118736    3.672829   -0.873914
     46          1           0       -1.273249    2.781578    1.935745
     47          1           0        0.718520    3.224986   -1.267931
     48          1           0       -0.064783   -0.357893   -0.234529
     49          1           0        2.680880    3.446653    1.069799
     50          1           0        2.356262    4.688000   -0.160220
     51          1           0        4.511555    3.405978   -0.570668
     52          1           0        3.380191    3.306623   -1.937396
     53          1           0        2.655360   -0.947762   -1.645849
     54          1           0        2.230106   -1.296199    0.052899
     55          1           0        6.349065    2.086143   -1.177958
     56          1           0        8.055210    0.329267   -0.628067
     57          1           0        4.950139   -2.533726    0.249833
     58          1           0        7.928597   -3.064674    2.315259
 ---------------------------------------------------------------------

 The electronic state is 1-A.
 Alpha  occ. eigenvalues --  -89.14830 -89.01927 -19.20990 -19.19808 -19.16561
 Alpha  occ. eigenvalues --  -19.16458 -19.02987 -19.02972 -19.02912 -14.46246
 Alpha  occ. eigenvalues --  -14.44106 -10.31201 -10.30545 -10.30143 -10.29990
 Alpha  occ. eigenvalues --  -10.29436 -10.29364 -10.29266 -10.26818 -10.26638
 Alpha  occ. eigenvalues --  -10.26385 -10.25679 -10.25678 -10.25653 -10.25605
 Alpha  occ. eigenvalues --  -10.25540 -10.25505 -10.25239 -10.25022 -10.24819
 Alpha  occ. eigenvalues --  -10.24810 -10.22412 -10.21678 -10.19813 -10.19564
 Alpha  occ. eigenvalues --  -10.19133  -8.17990  -8.04762  -6.14414  -6.14260
 Alpha  occ. eigenvalues --   -6.14117  -6.01093  -6.01065  -6.01057  -1.15673
 Alpha  occ. eigenvalues --   -1.09581  -1.06390  -1.05501  -1.05143  -1.02962
 Alpha  occ. eigenvalues --   -1.01834  -0.92327  -0.89884  -0.89110  -0.88574
 Alpha  occ. eigenvalues --   -0.88305  -0.87637  -0.86829  -0.85388  -0.82381
 Alpha  occ. eigenvalues --   -0.81359  -0.80177  -0.77651  -0.77058  -0.75070
 Alpha  occ. eigenvalues --   -0.74429  -0.73337  -0.71170  -0.68527  -0.67956
 Alpha  occ. eigenvalues --   -0.66479  -0.65259  -0.64417  -0.62549  -0.61782
 Alpha  occ. eigenvalues --   -0.59975  -0.58479  -0.58224  -0.57578  -0.57091
 Alpha  occ. eigenvalues --   -0.55987  -0.55293  -0.54373  -0.54041  -0.53199
 Alpha  occ. eigenvalues --   -0.52723  -0.52573  -0.51254  -0.50731  -0.50112
 Alpha  occ. eigenvalues --   -0.49587  -0.49156  -0.48583  -0.48456  -0.47870
 Alpha  occ. eigenvalues --   -0.47588  -0.46736  -0.46456  -0.46096  -0.45692
 Alpha  occ. eigenvalues --   -0.45200  -0.44997  -0.44669  -0.44253  -0.44034
 Alpha  occ. eigenvalues --   -0.43323  -0.42820  -0.42440  -0.41296  -0.40494
 Alpha  occ. eigenvalues --   -0.40060  -0.39871  -0.39290  -0.38775  -0.38522
 Alpha  occ. eigenvalues --   -0.38119  -0.36866  -0.36518  -0.36122  -0.36000
 Alpha  occ. eigenvalues --   -0.34959  -0.34760  -0.34044  -0.33914  -0.32064
 Alpha  occ. eigenvalues --   -0.31457  -0.31283  -0.30353  -0.27213  -0.26915
 Alpha  occ. eigenvalues --   -0.24164  -0.23858  -0.23714  -0.21059  -0.20821
 Alpha  occ. eigenvalues --   -0.19870  -0.16692
 Alpha virt. eigenvalues --   -0.13872  -0.07698  -0.06959  -0.04715  -0.02280
 Alpha virt. eigenvalues --   -0.00742  -0.00015   0.00239   0.01045   0.01091
 Alpha virt. eigenvalues --    0.02017   0.02758   0.03658   0.04302   0.04804

 Mulliken atomic charges:
              1
     1  C   -0.008629
     2  C    0.222846
     3  C   -0.130880
     4  C    0.044245
     5  C   -0.243093
     6  C    0.110444
     7  C    0.178904
     8  C    0.080174
     9  N   -0.263626
    10  C    0.088247
    11  C    0.047466
    12  C    0.157840
    13  C   -0.119505
    14  O   -0.319769
    15  C    0.127141
    16  C   -0.091238
    17  C    0.015561
    18  C    0.033849
    19  C    0.102674
    20  N   -0.309102
    21  C    0.117756
    22  C    0.133055
    23  C   -0.115649
    24  C    0.230992
    25  C   -0.004615
    26  C    0.107542
    27  C   -0.252275
    28  C    0.054954
    29  S    0.986999
    30  S    0.995304
    31  O   -0.515924
    32  O   -0.519482
    33  O   -0.524142
    34  O   -0.410783
    35  O   -0.324710
    36  O   -0.439892
    37  H   -0.027000
    38  H   -0.024068
    39  H   -0.005528
    40  H    0.082582
    41  H    0.082527
    42  H    0.059076
    43  H    0.061667
    44  H    0.032110
    45  H    0.025047
    46  H    0.027467
    47  H    0.011652
    48  H   -0.022661
    49  H    0.032240
    50  H    0.025536
    51  H    0.044215
    52  H    0.044044
    53  H    0.081361
    54  H    0.046820
    55  H   -0.007403
    56  H    0.006646
    57  H   -0.009139
    58  H    0.190132
 Sum of Mulliken atomic charges =   0.00000

 Dipole moment (field-independent basis, Debye):
    X=             22.2151    Y=             16.3899    Z=              0.9153  Tot=             27.6220
 Quadrupole moment (field-independent basis, Debye-Ang):
   XX=           -452.1265   YY=           -225.6689   ZZ=           -221.5905
   XY=            -70.5020   XZ=             -6.0464   YZ=            -11.0689

 Normal termination of Gaussian 09 at Sat Mar 21 18:08:02 2015.
