 Gaussian 09, Revision B.01,
 Gaussian 09:  EM64L-G09RevB.01 12-Aug-2010

 ------------------------------------------------------
 # opt=modredundant B3LYP/cc-pVDZ Geom=PrintInputOrient
 ------------------------------------------------------

 -------------------------------
 CY3 Dihedral Scan at MP2/6-31G*
 -------------------------------
 Symbolic Z-matrix:
 Charge =  0 Multiplicity = 1

 SCF Done:  E(RB3LYP) =  -2398.26711824     A.U. after   22 cycles
 SCF Done:  E(RB3LYP) =  -2398.26712603     A.U. after    8 cycles
 Optimization completed.
    -- Stationary point found.
 SCF Done:  E(RB3LYP) =  -2398.26396476     A.U. after   13 cycles
 SCF Done:  E(RB3LYP) =  -2398.26394018     A.U. after   13 cycles
 SCF Done:  E(RB3LYP) =  -2398.26428206     A.U. after   12 cycles
 SCF Done:  E(RB3LYP) =  -2398.26429307     A.U. after   10 cycles
 SCF Done:  E(RB3LYP) =  -2398.26429475     A.U. after    8 cycles
 SCF Done:  E(RB3LYP) =  -2398.26429511     A.U. after    8 cycles
 SCF Done:  E(RB3LYP) =  -2398.26429523     A.U. after    7 cycles
 SCF Done:  E(RB3LYP) =  -2398.26429530     A.U. after    7 cycles
 SCF Done:  E(RB3LYP) =  -2398.26429593     A.U. after    8 cycles
 SCF Done:  E(RB3LYP) =  -2398.26429600     A.U. after    7 cycles
 SCF Done:  E(RB3LYP) =  -2398.26429597     A.U. after    7 cycles
 Optimization completed.
    -- Stationary point found.
 SCF Done:  E(RB3LYP) =  -2398.25469998     A.U. after   13 cycles
 SCF Done:  E(RB3LYP) =  -2398.25460587     A.U. after   12 cycles
 SCF Done:  E(RB3LYP) =  -2398.25470699     A.U. after   12 cycles
 SCF Done:  E(RB3LYP) =  -2398.25540454     A.U. after   12 cycles
 SCF Done:  E(RB3LYP) =  -2398.25543416     A.U. after   11 cycles
 SCF Done:  E(RB3LYP) =  -2398.25543455     A.U. after    8 cycles
 SCF Done:  E(RB3LYP) =  -2398.25543461     A.U. after    8 cycles
 Optimization completed.
    -- Stationary point found.

                         Standard orientation:
 ---------------------------------------------------------------------
 Center     Atomic      Atomic             Coordinates (Angstroms)
 Number     Number       Type             X           Y           Z
 ---------------------------------------------------------------------
      1          6           0       -6.110313    1.177723    0.009678
      2          6           0       -4.769679    0.796427    0.097423
      3          6           0       -4.356940   -0.547806    0.079637
      4          6           0       -5.298306   -1.557727   -0.029684
      5          6           0       -6.654455   -1.198175   -0.099728
      6          6           0       -7.050041    0.149649   -0.091971
      7          6           0       -2.849502   -0.574335    0.170029
      8          6           0       -2.491497    0.890742    0.260696
      9          7           0       -3.617585    1.614053    0.197544
     10          6           0       -3.658321    3.084561    0.187798
     11          6           0       -2.292348    3.680017   -0.160558
     12          6           0       -1.211797    2.985184    0.677454
     13          6           0       -1.215770    1.497902    0.382201
     14          8           0        0.061583    3.611984    0.589611
     15          6           0        1.056120    3.001714   -0.233703
     16          6           0        1.183256    1.513591    0.039277
     17          6           0       -0.031327    0.807883    0.227419
     18          6           0        2.366023    3.730605    0.060168
     19          6           0        3.548680    3.050270   -0.628001
     20          7           0        3.567133    1.623438   -0.310013
     21          6           0        2.422490    0.917235   -0.019192
     22          6           0        2.799553   -0.537661    0.194331
     23          6           0        4.296827   -0.526309   -0.010493
     24          6           0        4.689339    0.789982   -0.349099
     25          6           0        5.994558    1.102838   -0.741945
     26          6           0        6.964783    0.095149   -0.631757
     27          6           0        6.583756   -1.139503   -0.098307
     28          6           0        5.233742   -1.541756   -0.107975
     29         16           0       -7.927784   -2.527684   -0.162809
     30         16           0        7.838152   -2.416623    0.048151
     31          8           0       -8.243257   -2.691069    1.294919
     32          8           0       -9.018116   -1.918746   -0.989775
     33          8           0       -7.188073   -3.673093   -0.787278
     34          8           0        9.085537   -1.945407   -0.575221
     35          8           0        8.042623   -2.381429    1.701037
     36          8           0        7.256972   -3.741259   -0.267071
     37          1           0       -6.420505    2.224434    0.018742
     38          1           0       -5.041820   -2.618101   -0.076655
     39          1           0       -8.115690    0.366741   -0.183112
     40          1           0       -2.380022   -1.041682   -0.711521
     41          1           0       -2.479011   -1.117470    1.055766
     42          1           0       -3.999867    3.419385    1.181828
     43          1           0       -4.422224    3.388343   -0.541272
     44          1           0       -2.304976    4.758036    0.055910
     45          1           0       -2.079557    3.551598   -1.234528
     46          1           0       -1.492496    3.104210    1.741548
     47          1           0        0.782917    3.140582   -1.300788
     48          1           0       -0.040213   -0.284546    0.174599
     49          1           0        2.514079    3.732158    1.151873
     50          1           0        2.301770    4.777394   -0.269259
     51          1           0        4.494722    3.493823   -0.286086
     52          1           0        3.499988    3.175934   -1.725331
     53          1           0        2.279984   -1.195211   -0.523245
     54          1           0        2.517894   -0.878845    1.203506
     55          1           0        6.260665    2.090276   -1.120197
     56          1           0        8.013528    0.291164   -0.855047
     57          1           0        4.978658   -2.590108    0.058290
     58          1           0        8.048325   -3.318684    1.974822
 ---------------------------------------------------------------------

 The electronic state is 1-A.
 Alpha  occ. eigenvalues --  -89.14903 -89.01775 -19.21125 -19.19719 -19.16740
 Alpha  occ. eigenvalues --  -19.16587 -19.02840 -19.02808 -19.02742 -14.45970
 Alpha  occ. eigenvalues --  -14.44619 -10.30998 -10.30776 -10.30010 -10.29950
 Alpha  occ. eigenvalues --  -10.29542 -10.29488 -10.29274 -10.27084 -10.26609
 Alpha  occ. eigenvalues --  -10.26497 -10.26014 -10.25872 -10.25675 -10.25465
 Alpha  occ. eigenvalues --  -10.25438 -10.25379 -10.25284 -10.24931 -10.24889
 Alpha  occ. eigenvalues --  -10.24586 -10.22224 -10.21494 -10.19613 -10.19420
 Alpha  occ. eigenvalues --  -10.18944  -8.18071  -8.04610  -6.14493  -6.14344
 Alpha  occ. eigenvalues --   -6.14192  -6.00940  -6.00913  -6.00904  -1.15801
 Alpha  occ. eigenvalues --   -1.09480  -1.06164  -1.06020  -1.05278  -1.03094
 Alpha  occ. eigenvalues --   -1.01675  -0.92605  -0.89750  -0.89049  -0.88413
 Alpha  occ. eigenvalues --   -0.88148  -0.87748  -0.86837  -0.85222  -0.82434
 Alpha  occ. eigenvalues --   -0.81520  -0.80075  -0.77660  -0.77082  -0.75008
 Alpha  occ. eigenvalues --   -0.74397  -0.73304  -0.71283  -0.68507  -0.67991
 Alpha  occ. eigenvalues --   -0.66435  -0.65196  -0.64698  -0.62497  -0.61650
 Alpha  occ. eigenvalues --   -0.59924  -0.58685  -0.58031  -0.57649  -0.57072
 Alpha  occ. eigenvalues --   -0.55908  -0.55107  -0.54527  -0.54203  -0.53227
 Alpha  occ. eigenvalues --   -0.52522  -0.52410  -0.51112  -0.50796  -0.50210
 Alpha  occ. eigenvalues --   -0.49721  -0.49282  -0.48796  -0.48455  -0.47794
 Alpha  occ. eigenvalues --   -0.47752  -0.46848  -0.46275  -0.45925  -0.45664
 Alpha  occ. eigenvalues --   -0.45204  -0.44826  -0.44704  -0.44357  -0.43975
 Alpha  occ. eigenvalues --   -0.43287  -0.42987  -0.42353  -0.41522  -0.40736
 Alpha  occ. eigenvalues --   -0.40146  -0.39929  -0.39355  -0.38742  -0.38374
 Alpha  occ. eigenvalues --   -0.38103  -0.36819  -0.36369  -0.36133  -0.35920
 Alpha  occ. eigenvalues --   -0.34978  -0.34760  -0.34207  -0.34134  -0.32189
 Alpha  occ. eigenvalues --   -0.31299  -0.31080  -0.30494  -0.27090  -0.26751
 Alpha  occ. eigenvalues --   -0.23967  -0.23706  -0.23534  -0.20922  -0.20654
 Alpha  occ. eigenvalues --   -0.19703  -0.16540
 Alpha virt. eigenvalues --   -0.13698  -0.07788  -0.07405  -0.04690  -0.02120
 Alpha virt. eigenvalues --   -0.00583  -0.00006   0.00277   0.00877   0.00920
 Alpha virt. eigenvalues --    0.02095   0.02970   0.03862   0.03937   0.04858

 Mulliken atomic charges:
              1
     1  C   -0.009831
     2  C    0.223341
     3  C   -0.130261
     4  C    0.041295
     5  C   -0.243269
     6  C    0.112406
     7  C    0.178876
     8  C    0.080757
     9  N   -0.265655
    10  C    0.088547
    11  C    0.047512
    12  C    0.157387
    13  C   -0.117679
    14  O   -0.320077
    15  C    0.128633
    16  C   -0.097345
    17  C    0.009233
    18  C    0.040722
    19  C    0.094946
    20  N   -0.308567
    21  C    0.082178
    22  C    0.179305
    23  C   -0.165660
    24  C    0.266672
    25  C   -0.025672
    26  C    0.115722
    27  C   -0.271799
    28  C    0.055326
    29  S    0.986367
    30  S    0.993865
    31  O   -0.516900
    32  O   -0.520234
    33  O   -0.524920
    34  O   -0.408662
    35  O   -0.320836
    36  O   -0.438438
    37  H   -0.027805
    38  H   -0.024759
    39  H   -0.006301
    40  H    0.081410
    41  H    0.081462
    42  H    0.058279
    43  H    0.061050
    44  H    0.031281
    45  H    0.024525
    46  H    0.026580
    47  H    0.011663
    48  H   -0.025937
    49  H    0.032564
    50  H    0.026568
    51  H    0.047833
    52  H    0.044980
    53  H    0.079079
    54  H    0.077569
    55  H   -0.011471
    56  H    0.019586
    57  H    0.004795
    58  H    0.189764
 Sum of Mulliken atomic charges =   0.00000

 Dipole moment (field-independent basis, Debye):
    X=             22.6228    Y=             16.7321    Z=              1.2053  Tot=             28.1639
 Quadrupole moment (field-independent basis, Debye-Ang):
   XX=           -445.8967   YY=           -226.8242   ZZ=           -224.0438
   XY=            -75.8052   XZ=              2.3662   YZ=            -14.1192

 Normal termination of Gaussian 09 at Sat Mar 21 19:48:42 2015.
