 Gaussian 09, Revision B.01,
 Gaussian 09:  EM64L-G09RevB.01 12-Aug-2010

 ------------------------------------------------------
 # opt=modredundant B3LYP/cc-pVDZ Geom=PrintInputOrient
 ------------------------------------------------------

 -------------------------------
 CY3 Dihedral Scan at MP2/6-31G*
 -------------------------------
 Symbolic Z-matrix:
 Charge =  0 Multiplicity = 1

 SCF Done:  E(RB3LYP) =  -2398.26711824     A.U. after   22 cycles
 SCF Done:  E(RB3LYP) =  -2398.26712592     A.U. after    8 cycles
 Optimization completed.
    -- Stationary point found.
 SCF Done:  E(RB3LYP) =  -2398.26441805     A.U. after   14 cycles
 SCF Done:  E(RB3LYP) =  -2398.26365809     A.U. after   12 cycles
 SCF Done:  E(RB3LYP) =  -2398.26454843     A.U. after   12 cycles
 SCF Done:  E(RB3LYP) =  -2398.26455896     A.U. after   11 cycles
 SCF Done:  E(RB3LYP) =  -2398.26456132     A.U. after   11 cycles
 SCF Done:  E(RB3LYP) =  -2398.26456208     A.U. after    8 cycles
 SCF Done:  E(RB3LYP) =  -2398.26456234     A.U. after    7 cycles
 Optimization completed.
    -- Stationary point found.
 SCF Done:  E(RB3LYP) =  -2398.25607861     A.U. after   14 cycles
 SCF Done:  E(RB3LYP) =  -2398.25611720     A.U. after    8 cycles
 SCF Done:  E(RB3LYP) =  -2398.25653853     A.U. after   12 cycles
 SCF Done:  E(RB3LYP) =  -2398.25654642     A.U. after   11 cycles
 SCF Done:  E(RB3LYP) =  -2398.25654956     A.U. after   11 cycles
 SCF Done:  E(RB3LYP) =  -2398.25655164     A.U. after   11 cycles
 SCF Done:  E(RB3LYP) =  -2398.25655319     A.U. after   10 cycles
 SCF Done:  E(RB3LYP) =  -2398.25655344     A.U. after    8 cycles
 SCF Done:  E(RB3LYP) =  -2398.25655368     A.U. after    7 cycles
 SCF Done:  E(RB3LYP) =  -2398.25655368     A.U. after    6 cycles
 Optimization completed.
    -- Stationary point found.

                         Standard orientation:
 ---------------------------------------------------------------------
 Center     Atomic      Atomic             Coordinates (Angstroms)
 Number     Number       Type             X           Y           Z
 ---------------------------------------------------------------------
      1          6           0       -6.095410    1.137371   -0.334804
      2          6           0       -4.762855    0.765971   -0.115432
      3          6           0       -4.341319   -0.578792   -0.085902
      4          6           0       -5.280563   -1.600001   -0.141367
      5          6           0       -6.633213   -1.215686   -0.143946
      6          6           0       -6.984406    0.081720   -0.556868
      7          6           0       -2.836749   -0.590625    0.045647
      8          6           0       -2.495416    0.876581    0.159418
      9          7           0       -3.623189    1.590740    0.043485
     10          6           0       -3.674586    3.061105    0.036154
     11          6           0       -2.298659    3.668709   -0.244808
     12          6           0       -1.253877    2.980128    0.642093
     13          6           0       -1.231392    1.493837    0.342665
     14          8           0        0.017000    3.617321    0.616864
     15          6           0        1.052532    3.020468   -0.164572
     16          6           0        1.180636    1.532234    0.106049
     17          6           0       -0.035194    0.815276    0.239296
     18          6           0        2.341226    3.758310    0.193505
     19          6           0        3.560430    3.095687   -0.446127
     20          7           0        3.575863    1.665016   -0.146492
     21          6           0        2.426183    0.947270    0.095021
     22          6           0        2.808052   -0.505487    0.309684
     23          6           0        4.304978   -0.490257    0.097055
     24          6           0        4.701091    0.835071   -0.177245
     25          6           0        6.028275    1.174877   -0.444504
     26          6           0        6.978637    0.147631   -0.416768
     27          6           0        6.584558   -1.159473   -0.125723
     28          6           0        5.244991   -1.504898    0.123152
     29         16           0       -7.933038   -2.508735    0.024907
     30         16           0        7.822163   -2.452628   -0.115946
     31          8           0       -8.273391   -2.368416    1.478847
     32          8           0       -8.996424   -2.058509   -0.930380
     33          8           0       -7.213375   -3.772424   -0.342977
     34          8           0        9.030928   -1.961689   -0.797869
     35          8           0        8.125604   -2.506914    1.522391
     36          8           0        7.201438   -3.748695   -0.466294
     37          1           0       -6.401027    2.177779   -0.459617
     38          1           0       -5.036287   -2.661044   -0.061368
     39          1           0       -8.034891    0.267340   -0.791596
     40          1           0       -2.341905   -1.038649   -0.832845
     41          1           0       -2.480567   -1.143735    0.930408
     42          1           0       -4.065812    3.389005    1.013975
     43          1           0       -4.404917    3.362348   -0.727340
     44          1           0       -2.330698    4.745891   -0.026087
     45          1           0       -2.033562    3.545479   -1.307721
     46          1           0       -1.586047    3.093759    1.691804
     47          1           0        0.826310    3.163793   -1.242019
     48          1           0       -0.031758   -0.276934    0.181341
     49          1           0        2.439503    3.751493    1.290806
     50          1           0        2.282019    4.807475   -0.129281
     51          1           0        4.484226    3.544045   -0.053374
     52          1           0        3.564061    3.235209   -1.542911
     53          1           0        2.286045   -1.166367   -0.402409
     54          1           0        2.532292   -0.843984    1.321888
     55          1           0        6.327648    2.196295   -0.680625
     56          1           0        8.027565    0.353040   -0.631325
     57          1           0        4.973764   -2.544068    0.314112
     58          1           0        8.247387   -3.454185    1.727178
 ---------------------------------------------------------------------

 The electronic state is 1-A.
 Alpha  occ. eigenvalues --  -89.14904 -89.01882 -19.21077 -19.19653 -19.16625
 Alpha  occ. eigenvalues --  -19.16532 -19.03018 -19.03004 -19.02785 -14.45931
 Alpha  occ. eigenvalues --  -14.44513 -10.30883 -10.30672 -10.29933 -10.29880
 Alpha  occ. eigenvalues --  -10.29493 -10.29445 -10.29210 -10.26955 -10.26489
 Alpha  occ. eigenvalues --  -10.26391 -10.25888 -10.25741 -10.25542 -10.25426
 Alpha  occ. eigenvalues --  -10.25364 -10.25314 -10.25304 -10.24879 -10.24836
 Alpha  occ. eigenvalues --  -10.24493 -10.22219 -10.21573 -10.19732 -10.19483
 Alpha  occ. eigenvalues --  -10.19147  -8.18067  -8.04719  -6.14491  -6.14335
 Alpha  occ. eigenvalues --   -6.14195  -6.01050  -6.01025  -6.01011  -1.15737
 Alpha  occ. eigenvalues --   -1.09420  -1.06086  -1.05947  -1.05225  -1.03023
 Alpha  occ. eigenvalues --   -1.01792  -0.92479  -0.89683  -0.88980  -0.88552
 Alpha  occ. eigenvalues --   -0.88261  -0.87683  -0.86772  -0.85268  -0.82451
 Alpha  occ. eigenvalues --   -0.81531  -0.80039  -0.77603  -0.77054  -0.74991
 Alpha  occ. eigenvalues --   -0.74343  -0.73263  -0.71248  -0.68456  -0.67939
 Alpha  occ. eigenvalues --   -0.66395  -0.65202  -0.64624  -0.62455  -0.61561
 Alpha  occ. eigenvalues --   -0.59871  -0.58641  -0.57968  -0.57635  -0.57053
 Alpha  occ. eigenvalues --   -0.55856  -0.55060  -0.54524  -0.54183  -0.53206
 Alpha  occ. eigenvalues --   -0.52500  -0.52415  -0.51299  -0.50786  -0.50088
 Alpha  occ. eigenvalues --   -0.49634  -0.49196  -0.48668  -0.48343  -0.47719
 Alpha  occ. eigenvalues --   -0.47677  -0.46692  -0.46321  -0.45953  -0.45716
 Alpha  occ. eigenvalues --   -0.45129  -0.44762  -0.44507  -0.44183  -0.43964
 Alpha  occ. eigenvalues --   -0.43242  -0.42989  -0.42308  -0.41529  -0.40606
 Alpha  occ. eigenvalues --   -0.40065  -0.39932  -0.39334  -0.38937  -0.38640
 Alpha  occ. eigenvalues --   -0.37860  -0.36787  -0.36614  -0.36161  -0.35928
 Alpha  occ. eigenvalues --   -0.34818  -0.34751  -0.34096  -0.34066  -0.32020
 Alpha  occ. eigenvalues --   -0.31348  -0.31293  -0.30549  -0.26985  -0.26476
 Alpha  occ. eigenvalues --   -0.24009  -0.23797  -0.23599  -0.21051  -0.20629
 Alpha  occ. eigenvalues --   -0.19895  -0.16665
 Alpha virt. eigenvalues --   -0.13582  -0.07388  -0.07129  -0.04586  -0.02308
 Alpha virt. eigenvalues --   -0.00954   0.00030   0.00310   0.00884   0.01035
 Alpha virt. eigenvalues --    0.02084   0.03052   0.03964   0.04072   0.04818

 Mulliken atomic charges:
              1
     1  C   -0.012924
     2  C    0.214453
     3  C   -0.135671
     4  C    0.039692
     5  C   -0.243077
     6  C    0.095123
     7  C    0.175060
     8  C    0.080693
     9  N   -0.262643
    10  C    0.090283
    11  C    0.045983
    12  C    0.157056
    13  C   -0.116034
    14  O   -0.319955
    15  C    0.129131
    16  C   -0.097387
    17  C    0.008499
    18  C    0.038990
    19  C    0.095741
    20  N   -0.314561
    21  C    0.081212
    22  C    0.186690
    23  C   -0.156066
    24  C    0.268609
    25  C   -0.010566
    26  C    0.108604
    27  C   -0.252030
    28  C    0.050741
    29  S    0.990064
    30  S    0.994400
    31  O   -0.517133
    32  O   -0.516803
    33  O   -0.521144
    34  O   -0.411112
    35  O   -0.325058
    36  O   -0.438069
    37  H   -0.022129
    38  H   -0.012358
    39  H    0.008354
    40  H    0.080615
    41  H    0.080740
    42  H    0.059480
    43  H    0.059022
    44  H    0.031163
    45  H    0.023722
    46  H    0.027076
    47  H    0.011165
    48  H   -0.026720
    49  H    0.032457
    50  H    0.026311
    51  H    0.047951
    52  H    0.045068
    53  H    0.078412
    54  H    0.080037
    55  H   -0.011073
    56  H    0.005065
    57  H   -0.015446
    58  H    0.190298
 Sum of Mulliken atomic charges =   0.00000

 Dipole moment (field-independent basis, Debye):
    X=             22.7103    Y=             16.5462    Z=              0.4778  Tot=             28.1027
 Quadrupole moment (field-independent basis, Debye-Ang):
   XX=           -440.3926   YY=           -225.2951   ZZ=           -225.5615
   XY=            -74.7675   XZ=             16.3957   YZ=            -12.7432

 Normal termination of Gaussian 09 at Thu Mar 19 03:01:51 2015.
