 Gaussian 09, Revision B.01,
 Gaussian 09:  EM64L-G09RevB.01 12-Aug-2010

 ------------------------------------------------------
 # opt=modredundant B3LYP/cc-pVDZ Geom=PrintInputOrient
 ------------------------------------------------------

 -------------------------------
 CY3 Dihedral Scan at MP2/6-31G*
 -------------------------------
 Symbolic Z-matrix:
 Charge =  0 Multiplicity = 1

 SCF Done:  E(RB3LYP) =  -2398.26711824     A.U. after   22 cycles
 SCF Done:  E(RB3LYP) =  -2398.26712598     A.U. after    8 cycles
 Optimization completed.
    -- Stationary point found.
 SCF Done:  E(RB3LYP) =  -2398.26393574     A.U. after   13 cycles
 SCF Done:  E(RB3LYP) =  -2398.26203822     A.U. after   13 cycles
 SCF Done:  E(RB3LYP) =  -2398.26409969     A.U. after   13 cycles
 SCF Done:  E(RB3LYP) =  -2398.26411736     A.U. after   11 cycles
 SCF Done:  E(RB3LYP) =  -2398.26412260     A.U. after   11 cycles
 SCF Done:  E(RB3LYP) =  -2398.26412412     A.U. after    8 cycles
 SCF Done:  E(RB3LYP) =  -2398.26412481     A.U. after    7 cycles
 SCF Done:  E(RB3LYP) =  -2398.26412560     A.U. after    8 cycles
 SCF Done:  E(RB3LYP) =  -2398.26413543     A.U. after    7 cycles
 SCF Done:  E(RB3LYP) =  -2398.26413548     A.U. after    7 cycles
 SCF Done:  E(RB3LYP) =  -2398.26413549     A.U. after    7 cycles
 Optimization completed.
    -- Stationary point found.
 SCF Done:  E(RB3LYP) =  -2398.25438428     A.U. after   13 cycles
 SCF Done:  E(RB3LYP) =  -2398.25401486     A.U. after   11 cycles
 SCF Done:  E(RB3LYP) =  -2398.25480018     A.U. after   12 cycles
 SCF Done:  E(RB3LYP) =  -2398.25480728     A.U. after   11 cycles
 SCF Done:  E(RB3LYP) =  -2398.25480836     A.U. after   10 cycles
 SCF Done:  E(RB3LYP) =  -2398.25480878     A.U. after    8 cycles
 SCF Done:  E(RB3LYP) =  -2398.25480878     A.U. after    7 cycles
 Optimization completed.
    -- Stationary point found.

                         Standard orientation:
 ---------------------------------------------------------------------
 Center     Atomic      Atomic             Coordinates (Angstroms)
 Number     Number       Type             X           Y           Z
 ---------------------------------------------------------------------
      1          6           0       -6.110262    1.156939   -0.107348
      2          6           0       -4.769883    0.790602    0.030612
      3          6           0       -4.347884   -0.549748    0.091589
      4          6           0       -5.279756   -1.570896    0.011707
      5          6           0       -6.636370   -1.225425   -0.107575
      6          6           0       -7.040867    0.117742   -0.177554
      7          6           0       -2.842973   -0.559666    0.219883
      8          6           0       -2.497261    0.910883    0.245515
      9          7           0       -3.625976    1.621148    0.116629
     10          6           0       -3.676627    3.088885    0.029562
     11          6           0       -2.305330    3.677486   -0.309473
     12          6           0       -1.245369    3.033990    0.593309
     13          6           0       -1.229600    1.534143    0.371258
     14          8           0        0.025590    3.666397    0.513854
     15          6           0        1.049290    3.027775   -0.250318
     16          6           0        1.178354    1.554822    0.093756
     17          6           0       -0.036113    0.848578    0.282574
     18          6           0        2.343909    3.779601    0.054045
     19          6           0        3.554369    3.082503   -0.564521
     20          7           0        3.571592    1.669081   -0.188812
     21          6           0        2.422873    0.967107    0.101266
     22          6           0        2.803140   -0.474047    0.388001
     23          6           0        4.297407   -0.476263    0.156077
     24          6           0        4.689221    0.831170   -0.211538
     25          6           0        6.038853    1.150497   -0.385067
     26          6           0        6.897197    0.067227   -0.624865
     27          6           0        6.574574   -1.175028   -0.071551
     28          6           0        5.247461   -1.475494    0.297689
     29         16           0       -7.898519   -2.566704   -0.130753
     30         16           0        7.787345   -2.490752   -0.104495
     31          8           0       -8.205441   -2.695380    1.332355
     32          8           0       -8.998020   -1.989872   -0.968536
     33          8           0       -7.150431   -3.721140   -0.727857
     34          8           0        8.813169   -2.158876   -1.104991
     35          8           0        8.465548   -2.283778    1.402335
     36          8           0        7.107829   -3.804696   -0.071325
     37          1           0       -6.426951    2.200476   -0.158675
     38          1           0       -5.014368   -2.630019    0.024251
     39          1           0       -8.105889    0.320264   -0.303403
     40          1           0       -2.348660   -1.066609   -0.625536
     41          1           0       -2.490789   -1.055043    1.140358
     42          1           0       -4.049368    3.471488    0.994699
     43          1           0       -4.421130    3.347914   -0.735961
     44          1           0       -2.331548    4.764823   -0.147769
     45          1           0       -2.060619    3.497384   -1.369125
     46          1           0       -1.559393    3.202317    1.641319
     47          1           0        0.809320    3.117918   -1.330460
     48          1           0       -0.034994   -0.245121    0.281387
     49          1           0        2.454790    3.828648    1.149068
     50          1           0        2.282968    4.811021   -0.321316
     51          1           0        4.482386    3.550819   -0.207341
     52          1           0        3.544873    3.162272   -1.667115
     53          1           0        2.267247   -1.168858   -0.280381
     54          1           0        2.539746   -0.756679    1.420425
     55          1           0        6.353861    2.160492   -0.654257
     56          1           0        7.912489    0.237594   -0.986782
     57          1           0        4.987077   -2.478134    0.639648
     58          1           0        8.432374   -3.166791    1.817326
 ---------------------------------------------------------------------

 The electronic state is 1-A.
 Alpha  occ. eigenvalues --  -89.15052 -89.01763 -19.21144 -19.19722 -19.16801
 Alpha  occ. eigenvalues --  -19.16635 -19.02823 -19.02803 -19.02732 -14.45972
 Alpha  occ. eigenvalues --  -14.44642 -10.30997 -10.30757 -10.30010 -10.29952
 Alpha  occ. eigenvalues --  -10.29567 -10.29531 -10.29273 -10.26973 -10.26561
 Alpha  occ. eigenvalues --  -10.26490 -10.25850 -10.25718 -10.25663 -10.25456
 Alpha  occ. eigenvalues --  -10.25435 -10.25404 -10.25369 -10.24948 -10.24890
 Alpha  occ. eigenvalues --  -10.24580 -10.22215 -10.21489 -10.19626 -10.19388
 Alpha  occ. eigenvalues --  -10.18935  -8.18201  -8.04598  -6.14623  -6.14475
 Alpha  occ. eigenvalues --   -6.14328  -6.00929  -6.00901  -6.00892  -1.15905
 Alpha  occ. eigenvalues --   -1.09484  -1.06164  -1.06018  -1.05314  -1.03217
 Alpha  occ. eigenvalues --   -1.01663  -0.92543  -0.89744  -0.89037  -0.88405
 Alpha  occ. eigenvalues --   -0.88134  -0.87726  -0.86822  -0.85216  -0.82447
 Alpha  occ. eigenvalues --   -0.81530  -0.80074  -0.77593  -0.77079  -0.75006
 Alpha  occ. eigenvalues --   -0.74370  -0.73308  -0.71272  -0.68523  -0.67958
 Alpha  occ. eigenvalues --   -0.66434  -0.65191  -0.64728  -0.62498  -0.61650
 Alpha  occ. eigenvalues --   -0.59936  -0.58652  -0.58063  -0.57807  -0.57144
 Alpha  occ. eigenvalues --   -0.55955  -0.55099  -0.54482  -0.54076  -0.53244
 Alpha  occ. eigenvalues --   -0.52530  -0.52402  -0.51319  -0.50775  -0.50036
 Alpha  occ. eigenvalues --   -0.49691  -0.49294  -0.48859  -0.48443  -0.47766
 Alpha  occ. eigenvalues --   -0.47608  -0.46697  -0.46273  -0.45916  -0.45656
 Alpha  occ. eigenvalues --   -0.45202  -0.44937  -0.44610  -0.44354  -0.43975
 Alpha  occ. eigenvalues --   -0.43283  -0.42988  -0.42372  -0.41736  -0.40501
 Alpha  occ. eigenvalues --   -0.40052  -0.39985  -0.39342  -0.38677  -0.38357
 Alpha  occ. eigenvalues --   -0.38029  -0.36794  -0.36356  -0.36123  -0.35911
 Alpha  occ. eigenvalues --   -0.34903  -0.34745  -0.34280  -0.34196  -0.32398
 Alpha  occ. eigenvalues --   -0.31335  -0.31038  -0.30494  -0.27101  -0.26744
 Alpha  occ. eigenvalues --   -0.23965  -0.23694  -0.23532  -0.20898  -0.20654
 Alpha  occ. eigenvalues --   -0.19694  -0.16529
 Alpha virt. eigenvalues --   -0.13680  -0.07778  -0.07354  -0.04692  -0.02117
 Alpha virt. eigenvalues --   -0.00573   0.00018   0.00276   0.00834   0.00994
 Alpha virt. eigenvalues --    0.02042   0.02928   0.03859   0.04021   0.04656

 Mulliken atomic charges:
              1
     1  C   -0.009313
     2  C    0.223391
     3  C   -0.131006
     4  C    0.043288
     5  C   -0.243094
     6  C    0.110527
     7  C    0.178929
     8  C    0.081136
     9  N   -0.265559
    10  C    0.088513
    11  C    0.047511
    12  C    0.157049
    13  C   -0.117925
    14  O   -0.320162
    15  C    0.130426
    16  C   -0.093685
    17  C    0.009366
    18  C    0.035780
    19  C    0.096979
    20  N   -0.306733
    21  C    0.083336
    22  C    0.178680
    23  C   -0.153717
    24  C    0.236455
    25  C   -0.007137
    26  C    0.092517
    27  C   -0.257032
    28  C    0.060266
    29  S    0.986465
    30  S    0.999598
    31  O   -0.517078
    32  O   -0.520192
    33  O   -0.524874
    34  O   -0.408634
    35  O   -0.322681
    36  O   -0.439426
    37  H   -0.027895
    38  H   -0.024717
    39  H   -0.006185
    40  H    0.081700
    41  H    0.081482
    42  H    0.058251
    43  H    0.061161
    44  H    0.031272
    45  H    0.024629
    46  H    0.026540
    47  H    0.011984
    48  H   -0.025993
    49  H    0.032305
    50  H    0.026634
    51  H    0.048980
    52  H    0.046163
    53  H    0.079145
    54  H    0.078544
    55  H   -0.001709
    56  H    0.015866
    57  H   -0.010209
    58  H    0.190088
 Sum of Mulliken atomic charges =   0.00000

 Dipole moment (field-independent basis, Debye):
    X=             22.9169    Y=             17.2960    Z=              1.6367  Tot=             28.7579
 Quadrupole moment (field-independent basis, Debye-Ang):
   XX=           -436.7946   YY=           -229.9202   ZZ=           -224.2595
   XY=            -75.4558   XZ=              9.7035   YZ=            -14.9120

 Normal termination of Gaussian 09 at Sat Mar 21 22:19:53 2015.
