 Gaussian 09, Revision B.01,
 Gaussian 09:  EM64L-G09RevB.01 12-Aug-2010

 ------------------------------------------------------
 # opt=modredundant B3LYP/cc-pVDZ Geom=PrintInputOrient
 ------------------------------------------------------

 -------------------------------
 CY3 Dihedral Scan at MP2/6-31G*
 -------------------------------
 Symbolic Z-matrix:
 Charge =  0 Multiplicity = 1

 SCF Done:  E(RB3LYP) =  -2398.26711824     A.U. after   22 cycles
 SCF Done:  E(RB3LYP) =  -2398.26712607     A.U. after    8 cycles
 Optimization completed.
    -- Stationary point found.
 SCF Done:  E(RB3LYP) =  -2398.26030363     A.U. after   13 cycles
 SCF Done:  E(RB3LYP) =  -2398.26034028     A.U. after   11 cycles
 SCF Done:  E(RB3LYP) =  -2398.26352015     A.U. after   12 cycles
 SCF Done:  E(RB3LYP) =  -2398.26416638     A.U. after   12 cycles
 SCF Done:  E(RB3LYP) =  -2398.26419427     A.U. after   10 cycles
 SCF Done:  E(RB3LYP) =  -2398.26419827     A.U. after    9 cycles
 SCF Done:  E(RB3LYP) =  -2398.26419906     A.U. after    8 cycles
 SCF Done:  E(RB3LYP) =  -2398.26419929     A.U. after    8 cycles
 Optimization completed.
    -- Stationary point found.
 SCF Done:  E(RB3LYP) =  -2398.25414721     A.U. after   13 cycles
 SCF Done:  E(RB3LYP) =  -2398.25415073     A.U. after   11 cycles
 SCF Done:  E(RB3LYP) =  -2398.25415157     A.U. after   10 cycles
 SCF Done:  E(RB3LYP) =  -2398.25415181     A.U. after    8 cycles
 SCF Done:  E(RB3LYP) =  -2398.25415191     A.U. after    8 cycles
 SCF Done:  E(RB3LYP) =  -2398.25415217     A.U. after    8 cycles
 SCF Done:  E(RB3LYP) =  -2398.25415232     A.U. after    8 cycles
 SCF Done:  E(RB3LYP) =  -2398.25415240     A.U. after    8 cycles
 SCF Done:  E(RB3LYP) =  -2398.25415252     A.U. after    8 cycles
 SCF Done:  E(RB3LYP) =  -2398.25415256     A.U. after    7 cycles
 Optimization completed.
    -- Stationary point found.

                         Standard orientation:
 ---------------------------------------------------------------------
 Center     Atomic      Atomic             Coordinates (Angstroms)
 Number     Number       Type             X           Y           Z
 ---------------------------------------------------------------------
      1          6           0       -5.989534    1.097246   -0.503728
      2          6           0       -4.668944    0.789439   -0.168609
      3          6           0       -4.251269   -0.509211    0.173878
      4          6           0       -5.167849   -1.547341    0.189035
      5          6           0       -6.506029   -1.256938   -0.124738
      6          6           0       -6.904838    0.043336   -0.477680
      7          6           0       -2.766891   -0.463805    0.448720
      8          6           0       -2.431159    0.994416    0.245089
      9          7           0       -3.542353    1.645876   -0.118518
     10          6           0       -3.590172    3.075515   -0.465369
     11          6           0       -2.194143    3.628812   -0.760137
     12          6           0       -1.229541    3.172928    0.342118
     13          6           0       -1.183036    1.658303    0.382442
     14          8           0        0.038641    3.811074    0.286443
     15          6           0        1.140761    3.081765   -0.256043
     16          6           0        1.240886    1.685090    0.334607
     17          6           0        0.013856    0.992930    0.523445
     18          6           0        2.391257    3.902893    0.057397
     19          6           0        3.667802    3.151948   -0.316970
     20          7           0        3.661308    1.818346    0.279871
     21          6           0        2.478628    1.135839    0.544450
     22          6           0        2.904541   -0.180836    1.155672
     23          6           0        4.233266   -0.384653    0.457800
     24          6           0        4.741618    0.913691    0.220385
     25          6           0        6.049228    1.138667   -0.201864
     26          6           0        6.872368    0.015560   -0.372188
     27          6           0        6.370815   -1.262823   -0.129008
     28          6           0        5.051867   -1.487662    0.311010
     29         16           0       -7.758260   -2.604085   -0.028435
     30         16           0        7.436414   -2.673524   -0.407614
     31          8           0       -8.262805   -2.422917    1.373006
     32          8           0       -8.730371   -2.245564   -1.109860
     33          8           0       -6.941866   -3.840665   -0.258077
     34          8           0        8.585944   -2.250906   -1.224882
     35          8           0        7.960254   -2.912580    1.157508
     36          8           0        6.623798   -3.857979   -0.759713
     37          1           0       -6.301904    2.107717   -0.774179
     38          1           0       -4.904360   -2.581440    0.420681
     39          1           0       -7.951566    0.198912   -0.744424
     40          1           0       -2.187892   -1.101196   -0.240381
     41          1           0       -2.506490   -0.780659    1.472693
     42          1           0       -4.063278    3.609314    0.375973
     43          1           0       -4.252655    3.181220   -1.335549
     44          1           0       -2.243099    4.726910   -0.790317
     45          1           0       -1.839982    3.277713   -1.743263
     46          1           0       -1.651936    3.507693    1.308885
     47          1           0        1.016034    2.990753   -1.355110
     48          1           0        0.021830   -0.085332    0.703205
     49          1           0        2.385163    4.123161    1.136846
     50          1           0        2.358774    4.862427   -0.478116
     51          1           0        4.547851    3.699501    0.051536
     52          1           0        3.772807    3.058932   -1.414725
     53          1           0        2.172913   -0.988590    1.016639
     54          1           0        3.067823   -0.049033    2.239769
     55          1           0        6.425638    2.138166   -0.421573
     56          1           0        7.898547    0.126317   -0.723505
     57          1           0        4.703421   -2.502525    0.507755
     58          1           0        8.019525   -3.882113    1.260786
 ---------------------------------------------------------------------

 The electronic state is 1-A.
 Alpha  occ. eigenvalues --  -89.14766 -89.01918 -19.20962 -19.19829 -19.16487
 Alpha  occ. eigenvalues --  -19.16403 -19.02986 -19.02954 -19.02901 -14.46309
 Alpha  occ. eigenvalues --  -14.43811 -10.31243 -10.30477 -10.30162 -10.29993
 Alpha  occ. eigenvalues --  -10.29469 -10.29159 -10.29104 -10.26773 -10.26673
 Alpha  occ. eigenvalues --  -10.26370 -10.25693 -10.25661 -10.25635 -10.25578
 Alpha  occ. eigenvalues --  -10.25552 -10.25462 -10.25198 -10.25046 -10.24903
 Alpha  occ. eigenvalues --  -10.24784 -10.22430 -10.21683 -10.19776 -10.19602
 Alpha  occ. eigenvalues --  -10.19137  -8.17930  -8.04754  -6.14354  -6.14198
 Alpha  occ. eigenvalues --   -6.14058  -6.01085  -6.01056  -6.01048  -1.15597
 Alpha  occ. eigenvalues --   -1.09595  -1.06441  -1.05337  -1.05096  -1.02887
 Alpha  occ. eigenvalues --   -1.01827  -0.92252  -0.89905  -0.89116  -0.88565
 Alpha  occ. eigenvalues --   -0.88298  -0.87591  -0.86835  -0.85402  -0.82345
 Alpha  occ. eigenvalues --   -0.81260  -0.80179  -0.77660  -0.77025  -0.75044
 Alpha  occ. eigenvalues --   -0.74442  -0.73263  -0.71138  -0.68516  -0.67872
 Alpha  occ. eigenvalues --   -0.66457  -0.65259  -0.64251  -0.62558  -0.61775
 Alpha  occ. eigenvalues --   -0.59783  -0.58505  -0.57974  -0.57743  -0.57103
 Alpha  occ. eigenvalues --   -0.55959  -0.55310  -0.54576  -0.54090  -0.53042
 Alpha  occ. eigenvalues --   -0.52592  -0.52376  -0.51225  -0.50620  -0.50042
 Alpha  occ. eigenvalues --   -0.49793  -0.49159  -0.48643  -0.48402  -0.47903
 Alpha  occ. eigenvalues --   -0.47589  -0.46852  -0.46243  -0.46012  -0.45734
 Alpha  occ. eigenvalues --   -0.45283  -0.44782  -0.44521  -0.44215  -0.44040
 Alpha  occ. eigenvalues --   -0.43308  -0.42724  -0.42288  -0.41452  -0.40497
 Alpha  occ. eigenvalues --   -0.40145  -0.39802  -0.39214  -0.38777  -0.38522
 Alpha  occ. eigenvalues --   -0.37872  -0.36793  -0.36514  -0.36023  -0.35991
 Alpha  occ. eigenvalues --   -0.34988  -0.34879  -0.34057  -0.33953  -0.31845
 Alpha  occ. eigenvalues --   -0.31482  -0.31070  -0.30407  -0.27213  -0.26927
 Alpha  occ. eigenvalues --   -0.24270  -0.23852  -0.23720  -0.21070  -0.20795
 Alpha  occ. eigenvalues --   -0.19869  -0.16682
 Alpha virt. eigenvalues --   -0.13807  -0.07703  -0.06963  -0.04680  -0.02270
 Alpha virt. eigenvalues --   -0.00766  -0.00111   0.00288   0.00770   0.01098
 Alpha virt. eigenvalues --    0.01966   0.02965   0.03974   0.04098   0.04899

 Mulliken atomic charges:
              1
     1  C   -0.008946
     2  C    0.222965
     3  C   -0.129142
     4  C    0.040736
     5  C   -0.243096
     6  C    0.113517
     7  C    0.178201
     8  C    0.082600
     9  N   -0.263513
    10  C    0.087818
    11  C    0.046947
    12  C    0.157062
    13  C   -0.120684
    14  O   -0.319688
    15  C    0.130991
    16  C   -0.088991
    17  C    0.016352
    18  C    0.039486
    19  C    0.094080
    20  N   -0.307642
    21  C    0.122942
    22  C    0.128737
    23  C   -0.112267
    24  C    0.228872
    25  C   -0.001395
    26  C    0.104443
    27  C   -0.250424
    28  C    0.054560
    29  S    0.986858
    30  S    0.993260
    31  O   -0.515992
    32  O   -0.519304
    33  O   -0.523727
    34  O   -0.411892
    35  O   -0.326091
    36  O   -0.437634
    37  H   -0.027124
    38  H   -0.023651
    39  H   -0.005549
    40  H    0.083905
    41  H    0.082693
    42  H    0.059367
    43  H    0.062159
    44  H    0.032389
    45  H    0.025619
    46  H    0.027231
    47  H    0.013954
    48  H   -0.026714
    49  H    0.031692
    50  H    0.026584
    51  H    0.046441
    52  H    0.039203
    53  H    0.044594
    54  H    0.081633
    55  H   -0.011509
    56  H    0.006319
    57  H   -0.009310
    58  H    0.190074
 Sum of Mulliken atomic charges =   0.00000

 Dipole moment (field-independent basis, Debye):
    X=             22.3625    Y=             17.3910    Z=              1.7559  Tot=             28.3833
 Quadrupole moment (field-independent basis, Debye-Ang):
   XX=           -422.9916   YY=           -228.0538   ZZ=           -225.3305
   XY=            -76.6959   XZ=             18.8178   YZ=            -16.7940

 Normal termination of Gaussian 09 at Sat Mar 21 17:00:13 2015.
