 Gaussian 09, Revision B.01,
 Gaussian 09:  EM64L-G09RevB.01 12-Aug-2010

 ------------------------------------------------------
 # opt=modredundant B3LYP/cc-pVDZ Geom=PrintInputOrient
 ------------------------------------------------------

 -------------------------------
 CY3 Dihedral Scan at MP2/6-31G*
 -------------------------------
 Symbolic Z-matrix:
 Charge =  0 Multiplicity = 1

 SCF Done:  E(RB3LYP) =  -2398.26711824     A.U. after   22 cycles
 SCF Done:  E(RB3LYP) =  -2398.26712608     A.U. after    8 cycles
 Optimization completed.
    -- Stationary point found.
 SCF Done:  E(RB3LYP) =  -2398.26133262     A.U. after   13 cycles
 SCF Done:  E(RB3LYP) =  -2398.26587954     A.U. after   14 cycles
 SCF Done:  E(RB3LYP) =  -2398.26669573     A.U. after   12 cycles
 SCF Done:  E(RB3LYP) =  -2398.26675575     A.U. after   11 cycles
 SCF Done:  E(RB3LYP) =  -2398.26676040     A.U. after    8 cycles
 SCF Done:  E(RB3LYP) =  -2398.26676152     A.U. after    8 cycles
 SCF Done:  E(RB3LYP) =  -2398.26676266     A.U. after    8 cycles
 SCF Done:  E(RB3LYP) =  -2398.26676353     A.U. after    8 cycles
 Optimization completed.
 SCF Done:  E(RB3LYP) =  -2398.26171758     A.U. after    8 cycles
 SCF Done:  E(RB3LYP) =  -2398.26171788     A.U. after    8 cycles
 SCF Done:  E(RB3LYP) =  -2398.26171800     A.U. after    7 cycles
 SCF Done:  E(RB3LYP) =  -2398.26171802     A.U. after    7 cycles
    -- Stationary point found.
 SCF Done:  E(RB3LYP) =  -2398.25537357     A.U. after   13 cycles
 SCF Done:  E(RB3LYP) =  -2398.26115349     A.U. after   21 cycles
 SCF Done:  E(RB3LYP) =  -2398.26164286     A.U. after   12 cycles
 SCF Done:  E(RB3LYP) =  -2398.26166354     A.U. after   11 cycles
 SCF Done:  E(RB3LYP) =  -2398.26166511     A.U. after    8 cycles
 SCF Done:  E(RB3LYP) =  -2398.26166531     A.U. after    8 cycles
 Optimization completed.
    -- Stationary point found.

                         Standard orientation:
 ---------------------------------------------------------------------
 Center     Atomic      Atomic             Coordinates (Angstroms)
 Number     Number       Type             X           Y           Z
 ---------------------------------------------------------------------
      1          6           0       -6.108846    1.156231   -0.094432
      2          6           0       -4.768027    0.793040    0.047033
      3          6           0       -4.343458   -0.546367    0.107802
      4          6           0       -5.272654   -1.569588    0.022976
      5          6           0       -6.629504   -1.227414   -0.101711
      6          6           0       -7.036833    0.114872   -0.170129
      7          6           0       -2.838901   -0.553638    0.239610
      8          6           0       -2.495526    0.917587    0.263476
      9          7           0       -3.625621    1.626020    0.134504
     10          6           0       -3.677528    3.093457    0.045703
     11          6           0       -2.308306    3.681890   -0.302209
     12          6           0       -1.242711    3.043065    0.597286
     13          6           0       -1.228519    1.541829    0.383894
     14          8           0        0.028057    3.674733    0.504882
     15          6           0        1.045328    3.030602   -0.262950
     16          6           0        1.177130    1.560208    0.090943
     17          6           0       -0.034883    0.855596    0.293889
     18          6           0        2.343169    3.783762    0.023841
     19          6           0        3.546936    3.081822   -0.603286
     20          7           0        3.565896    1.670492   -0.222723
     21          6           0        2.422380    0.972510    0.087062
     22          6           0        2.807213   -0.465313    0.383073
     23          6           0        4.299052   -0.467205    0.135875
     24          6           0        4.689782    0.835245   -0.224639
     25          6           0        6.015259    1.153329   -0.527003
     26          6           0        6.961980    0.127781   -0.447845
     27          6           0        6.573192   -1.166912   -0.084895
     28          6           0        5.238733   -1.483517    0.216780
     29         16           0       -7.887414   -2.572650   -0.138134
     30         16           0        7.892670   -2.385892    0.050178
     31          8           0       -8.208884   -2.705472    1.321316
     32          8           0       -8.980258   -1.998006   -0.986154
     33          8           0       -7.129735   -3.723680   -0.730175
     34          8           0        8.653357   -2.126834    1.278821
     35          8           0        7.016522   -3.782335    0.289668
     36          8           0        8.565217   -2.518133   -1.259454
     37          1           0       -6.427923    2.199080   -0.145073
     38          1           0       -5.004835   -2.628119    0.034282
     39          1           0       -8.101713    0.315526   -0.300090
     40          1           0       -2.341716   -1.061606   -0.603390
     41          1           0       -2.488465   -1.046375    1.162236
     42          1           0       -4.044947    3.477837    1.012201
     43          1           0       -4.426180    3.351224   -0.716172
     44          1           0       -2.334621    4.769844   -0.144700
     45          1           0       -2.068907    3.497856   -1.362426
     46          1           0       -1.549237    3.217858    1.646420
     47          1           0        0.796149    3.112671   -1.341758
     48          1           0       -0.033640   -0.238127    0.301640
     49          1           0        2.465769    3.839115    1.117290
     50          1           0        2.278930    4.812931   -0.357072
     51          1           0        4.479781    3.549061   -0.256551
     52          1           0        3.527359    3.158644   -1.706063
     53          1           0        2.266774   -1.167788   -0.273329
     54          1           0        2.555029   -0.738807    1.420830
     55          1           0        6.317186    2.158779   -0.821249
     56          1           0        8.006881    0.336583   -0.681554
     57          1           0        4.964711   -2.499493    0.499680
     58          1           0        7.136639   -4.295031   -0.532416
 ---------------------------------------------------------------------

 The electronic state is 1-A.
 Alpha  occ. eigenvalues --  -89.15214 -89.01744 -19.22206 -19.19692 -19.16754
 Alpha  occ. eigenvalues --  -19.16552 -19.02805 -19.02781 -19.02703 -14.45901
 Alpha  occ. eigenvalues --  -14.44586 -10.30957 -10.30775 -10.29973 -10.29930
 Alpha  occ. eigenvalues --  -10.29563 -10.29416 -10.29233 -10.27072 -10.26836
 Alpha  occ. eigenvalues --  -10.26475 -10.25965 -10.25819 -10.25790 -10.25507
 Alpha  occ. eigenvalues --  -10.25425 -10.25377 -10.25351 -10.24927 -10.24857
 Alpha  occ. eigenvalues --  -10.24543 -10.22180 -10.21457 -10.19600 -10.19364
 Alpha  occ. eigenvalues --  -10.18900  -8.18361  -8.04579  -6.14812  -6.14613
 Alpha  occ. eigenvalues --   -6.14477  -6.00909  -6.00882  -6.00873  -1.16224
 Alpha  occ. eigenvalues --   -1.09450  -1.06113  -1.06072  -1.06010  -1.03144
 Alpha  occ. eigenvalues --   -1.01641  -0.92589  -0.89714  -0.89016  -0.88381
 Alpha  occ. eigenvalues --   -0.88114  -0.87766  -0.86814  -0.85186  -0.82527
 Alpha  occ. eigenvalues --   -0.81601  -0.80091  -0.77669  -0.77064  -0.74986
 Alpha  occ. eigenvalues --   -0.74357  -0.73280  -0.71331  -0.68605  -0.68117
 Alpha  occ. eigenvalues --   -0.66509  -0.65373  -0.64694  -0.62621  -0.61644
 Alpha  occ. eigenvalues --   -0.59956  -0.58739  -0.58438  -0.57977  -0.57431
 Alpha  occ. eigenvalues --   -0.55887  -0.55071  -0.54588  -0.53820  -0.53217
 Alpha  occ. eigenvalues --   -0.52448  -0.52346  -0.51361  -0.50685  -0.50309
 Alpha  occ. eigenvalues --   -0.49825  -0.49688  -0.49161  -0.48432  -0.47782
 Alpha  occ. eigenvalues --   -0.47502  -0.46790  -0.46267  -0.46029  -0.45895
 Alpha  occ. eigenvalues --   -0.45330  -0.45169  -0.44646  -0.44422  -0.43951
 Alpha  occ. eigenvalues --   -0.43294  -0.43025  -0.42317  -0.41593  -0.40731
 Alpha  occ. eigenvalues --   -0.40088  -0.39979  -0.39331  -0.38972  -0.38354
 Alpha  occ. eigenvalues --   -0.38236  -0.36869  -0.36344  -0.36321  -0.35890
 Alpha  occ. eigenvalues --   -0.35174  -0.34740  -0.34212  -0.33900  -0.32836
 Alpha  occ. eigenvalues --   -0.31469  -0.31250  -0.30343  -0.27060  -0.26714
 Alpha  occ. eigenvalues --   -0.23919  -0.23673  -0.23503  -0.20881  -0.20634
 Alpha  occ. eigenvalues --   -0.19670  -0.16510
 Alpha virt. eigenvalues --   -0.13626  -0.07442  -0.06790  -0.04493  -0.02089
 Alpha virt. eigenvalues --   -0.00744  -0.00547   0.00088   0.00673   0.00920
 Alpha virt. eigenvalues --    0.02076   0.02221   0.03630   0.03884   0.04103

 Mulliken atomic charges:
              1
     1  C   -0.009598
     2  C    0.223246
     3  C   -0.130851
     4  C    0.042949
     5  C   -0.243132
     6  C    0.110532
     7  C    0.178806
     8  C    0.080880
     9  N   -0.266123
    10  C    0.088871
    11  C    0.047244
    12  C    0.157291
    13  C   -0.118517
    14  O   -0.320083
    15  C    0.129553
    16  C   -0.097635
    17  C    0.009527
    18  C    0.038437
    19  C    0.095766
    20  N   -0.314334
    21  C    0.082238
    22  C    0.186066
    23  C   -0.156565
    24  C    0.266070
    25  C   -0.011904
    26  C    0.116792
    27  C   -0.245417
    28  C    0.052932
    29  S    0.986298
    30  S    0.986503
    31  O   -0.517258
    32  O   -0.520564
    33  O   -0.525674
    34  O   -0.399844
    35  O   -0.324294
    36  O   -0.438969
    37  H   -0.027947
    38  H   -0.025351
    39  H   -0.006402
    40  H    0.080494
    41  H    0.081418
    42  H    0.058089
    43  H    0.060776
    44  H    0.031157
    45  H    0.024262
    46  H    0.026633
    47  H    0.011279
    48  H   -0.027026
    49  H    0.032819
    50  H    0.026506
    51  H    0.048120
    52  H    0.044959
    53  H    0.076386
    54  H    0.081494
    55  H   -0.010381
    56  H    0.003191
    57  H   -0.019444
    58  H    0.189727
 Sum of Mulliken atomic charges =   0.00000

 Dipole moment (field-independent basis, Debye):
    X=             21.9807    Y=             16.1420    Z=             -1.3134  Tot=             27.3027
 Quadrupole moment (field-independent basis, Debye-Ang):
   XX=           -455.3770   YY=           -219.0275   ZZ=           -229.9594
   XY=            -78.4690   XZ=            -15.7261   YZ=             -2.6732

 Normal termination of Gaussian 09 at Sun Mar 22 10:02:10 2015.
