 Gaussian 09, Revision B.01,
 Gaussian 09:  EM64L-G09RevB.01 12-Aug-2010

 ------------------------------------------------------
 # opt=modredundant B3LYP/cc-pVDZ Geom=PrintInputOrient
 ------------------------------------------------------

 -------------------------------
 CY3 Dihedral Scan at MP2/6-31G*
 -------------------------------
 Symbolic Z-matrix:
 Charge =  0 Multiplicity = 1

 SCF Done:  E(RB3LYP) =  -2398.26711824     A.U. after   22 cycles
 SCF Done:  E(RB3LYP) =  -2398.26712607     A.U. after    8 cycles
 Optimization completed.
    -- Stationary point found.
 SCF Done:  E(RB3LYP) =  -2398.25622403     A.U. after   17 cycles
 SCF Done:  E(RB3LYP) =  -2398.26363777     A.U. after   13 cycles
 SCF Done:  E(RB3LYP) =  -2398.26468982     A.U. after   12 cycles
 SCF Done:  E(RB3LYP) =  -2398.26484638     A.U. after   12 cycles
 SCF Done:  E(RB3LYP) =  -2398.26494935     A.U. after   12 cycles
 SCF Done:  E(RB3LYP) =  -2398.26500937     A.U. after   13 cycles
 SCF Done:  E(RB3LYP) =  -2398.26506552     A.U. after   13 cycles
 SCF Done:  E(RB3LYP) =  -2398.26511456     A.U. after   13 cycles
 Optimization completed.
    -- Stationary point found.
 SCF Done:  E(RB3LYP) =  -2398.26321890     A.U. after    8 cycles
 SCF Done:  E(RB3LYP) =  -2398.26322001     A.U. after    8 cycles
 SCF Done:  E(RB3LYP) =  -2398.26322075     A.U. after   11 cycles
 SCF Done:  E(RB3LYP) =  -2398.26322143     A.U. after   12 cycles
 SCF Done:  E(RB3LYP) =  -2398.26322198     A.U. after   11 cycles
 SCF Done:  E(RB3LYP) =  -2398.26322268     A.U. after   11 cycles
 SCF Done:  E(RB3LYP) =  -2398.26322318     A.U. after   11 cycles
 SCF Done:  E(RB3LYP) =  -2398.26322311     A.U. after   10 cycles
 SCF Done:  E(RB3LYP) =  -2398.26322318     A.U. after    8 cycles
 SCF Done:  E(RB3LYP) =  -2398.26322319     A.U. after    7 cycles
 Optimization completed.
    -- Stationary point found.

                         Standard orientation:
 ---------------------------------------------------------------------
 Center     Atomic      Atomic             Coordinates (Angstroms)
 Number     Number       Type             X           Y           Z
 ---------------------------------------------------------------------
      1          6           0       -6.124341    1.152967    0.334063
      2          6           0       -4.788964    0.796332    0.131913
      3          6           0       -4.385280   -0.524629   -0.133755
      4          6           0       -5.330376   -1.534388   -0.205630
      5          6           0       -6.677542   -1.201333    0.012018
      6          6           0       -7.066480    0.124674    0.265440
      7          6           0       -2.884918   -0.528086   -0.307878
      8          6           0       -2.515686    0.921077   -0.089026
      9          7           0       -3.637684    1.618826    0.138068
     10          6           0       -3.651541    3.062939    0.394339
     11          6           0       -2.415638    3.730032   -0.202474
     12          6           0       -1.139361    3.009325    0.222758
     13          6           0       -1.234932    1.521059   -0.081896
     14          8           0       -0.058346    3.639491   -0.469816
     15          6           0        1.197356    2.984295   -0.405156
     16          6           0        1.176399    1.478548   -0.283534
     17          6           0       -0.065653    0.805561   -0.265679
     18          6           0        2.205400    3.550042    0.607193
     19          6           0        3.587111    3.112516    0.121194
     20          7           0        3.574865    1.650345   -0.096904
     21          6           0        2.421928    0.891493   -0.186430
     22          6           0        2.808493   -0.574481   -0.174359
     23          6           0        4.318016   -0.518681   -0.112864
     24          6           0        4.712222    0.833816   -0.067849
     25          6           0        6.053509    1.216673   -0.015521
     26          6           0        7.017591    0.202110   -0.001162
     27          6           0        6.621368   -1.136195   -0.029698
     28          6           0        5.271639   -1.521394   -0.096152
     29         16           0       -7.940587   -2.541197    0.004706
     30         16           0        7.879839   -2.410023   -0.029371
     31          8           0       -8.019935   -2.869086    1.467007
     32          8           0       -9.150879   -1.867570   -0.565461
     33          8           0       -7.307955   -3.596916   -0.852282
     34          8           0        9.167622   -1.807387   -0.410167
     35          8           0        7.915730   -2.739129    1.604363
     36          8           0        7.362469   -3.628758   -0.688551
     37          1           0       -6.428476    2.181882    0.535778
     38          1           0       -5.086502   -2.574435   -0.432062
     39          1           0       -8.131297    0.326856    0.392868
     40          1           0       -2.573441   -0.863343   -1.311291
     41          1           0       -2.370065   -1.176565    0.420689
     42          1           0       -3.715031    3.217516    1.485373
     43          1           0       -4.567789    3.473775   -0.050341
     44          1           0       -2.379667    4.782671    0.112406
     45          1           0       -2.468750    3.712385   -1.302986
     46          1           0       -0.995253    3.132613    1.316948
     47          1           0        1.622873    3.210316   -1.402123
     48          1           0       -0.096999   -0.282472   -0.369742
     49          1           0        2.010305    3.183260    1.627186
     50          1           0        2.157920    4.649136    0.616796
     51          1           0        4.364137    3.335421    0.867823
     52          1           0        3.859913    3.621893   -0.817752
     53          1           0        2.439772   -1.088350   -1.077429
     54          1           0        2.374661   -1.099837    0.692895
     55          1           0        6.355282    2.264351   -0.002507
     56          1           0        8.080442    0.443669    0.020817
     57          1           0        5.005378   -2.578180   -0.143586
     58          1           0        8.022723   -3.708039    1.666845
 ---------------------------------------------------------------------

 The electronic state is 1-A.
 Alpha  occ. eigenvalues --  -89.15042 -89.01724 -19.21209 -19.19960 -19.16773
 Alpha  occ. eigenvalues --  -19.16660 -19.02795 -19.02760 -19.02705 -14.45642
 Alpha  occ. eigenvalues --  -14.44827 -10.30923 -10.30716 -10.29981 -10.29771
 Alpha  occ. eigenvalues --  -10.29752 -10.29548 -10.29084 -10.27131 -10.26669
 Alpha  occ. eigenvalues --  -10.26541 -10.26069 -10.25891 -10.25696 -10.25476
 Alpha  occ. eigenvalues --  -10.25376 -10.25190 -10.25183 -10.24975 -10.24876
 Alpha  occ. eigenvalues --  -10.24780 -10.22089 -10.21379 -10.19499 -10.19350
 Alpha  occ. eigenvalues --  -10.18863  -8.18205  -8.04560  -6.14628  -6.14472
 Alpha  occ. eigenvalues --   -6.14333  -6.00890  -6.00863  -6.00855  -1.15877
 Alpha  occ. eigenvalues --   -1.09650  -1.05983  -1.05892  -1.05356  -1.03172
 Alpha  occ. eigenvalues --   -1.01623  -0.92674  -0.89610  -0.89093  -0.88366
 Alpha  occ. eigenvalues --   -0.88095  -0.87897  -0.86801  -0.85128  -0.82587
 Alpha  occ. eigenvalues --   -0.81555  -0.80057  -0.77604  -0.77118  -0.74850
 Alpha  occ. eigenvalues --   -0.74489  -0.73175  -0.71306  -0.68445  -0.68026
 Alpha  occ. eigenvalues --   -0.66323  -0.65301  -0.64724  -0.62761  -0.61683
 Alpha  occ. eigenvalues --   -0.59778  -0.58692  -0.58106  -0.57607  -0.57295
 Alpha  occ. eigenvalues --   -0.55921  -0.55040  -0.54586  -0.54166  -0.53263
 Alpha  occ. eigenvalues --   -0.52741  -0.51915  -0.51373  -0.50889  -0.50344
 Alpha  occ. eigenvalues --   -0.49582  -0.49208  -0.48838  -0.48090  -0.47936
 Alpha  occ. eigenvalues --   -0.47622  -0.46915  -0.46710  -0.45838  -0.45615
 Alpha  occ. eigenvalues --   -0.45269  -0.44932  -0.44391  -0.44059  -0.43920
 Alpha  occ. eigenvalues --   -0.43807  -0.42826  -0.42406  -0.41426  -0.40697
 Alpha  occ. eigenvalues --   -0.40186  -0.39892  -0.39408  -0.38991  -0.38336
 Alpha  occ. eigenvalues --   -0.38192  -0.36629  -0.36311  -0.36289  -0.35779
 Alpha  occ. eigenvalues --   -0.35198  -0.34695  -0.34243  -0.34124  -0.32154
 Alpha  occ. eigenvalues --   -0.31471  -0.31307  -0.30733  -0.27214  -0.26659
 Alpha  occ. eigenvalues --   -0.23921  -0.23664  -0.23460  -0.20881  -0.20589
 Alpha  occ. eigenvalues --   -0.19623  -0.16494
 Alpha virt. eigenvalues --   -0.13803  -0.07479  -0.07280  -0.04538  -0.02011
 Alpha virt. eigenvalues --   -0.00453   0.00093   0.00303   0.00916   0.01092
 Alpha virt. eigenvalues --    0.02256   0.02812   0.03553   0.04012   0.04379

 Mulliken atomic charges:
              1
     1  C   -0.010607
     2  C    0.223135
     3  C   -0.130504
     4  C    0.039498
     5  C   -0.243287
     6  C    0.114301
     7  C    0.180664
     8  C    0.084119
     9  N   -0.267368
    10  C    0.095487
    11  C    0.036188
    12  C    0.125899
    13  C   -0.081727
    14  O   -0.312377
    15  C    0.145935
    16  C   -0.111731
    17  C    0.005692
    18  C    0.042518
    19  C    0.098007
    20  N   -0.324410
    21  C    0.074297
    22  C    0.188194
    23  C   -0.153823
    24  C    0.268955
    25  C   -0.009619
    26  C    0.109189
    27  C   -0.251799
    28  C    0.050378
    29  S    0.986178
    30  S    0.994983
    31  O   -0.517327
    32  O   -0.519952
    33  O   -0.524557
    34  O   -0.410305
    35  O   -0.324975
    36  O   -0.437519
    37  H   -0.027475
    38  H   -0.025003
    39  H   -0.006711
    40  H    0.082935
    41  H    0.078766
    42  H    0.056333
    43  H    0.060974
    44  H    0.028751
    45  H    0.035982
    46  H    0.014674
    47  H    0.019935
    48  H   -0.025601
    49  H    0.023223
    50  H    0.027145
    51  H    0.046293
    52  H    0.048331
    53  H    0.080347
    54  H    0.078089
    55  H   -0.010685
    56  H    0.005582
    57  H   -0.014364
    58  H    0.190747
 Sum of Mulliken atomic charges =   0.00000

 Dipole moment (field-independent basis, Debye):
    X=             23.1633    Y=             16.4643    Z=              2.1539  Tot=             28.5000
 Quadrupole moment (field-independent basis, Debye-Ang):
   XX=           -445.2063   YY=           -223.5858   ZZ=           -226.6370
   XY=            -77.5983   XZ=             11.3670   YZ=             -1.9892

 Normal termination of Gaussian 09 at Thu Mar 19 15:52:51 2015.
