 Gaussian 09, Revision B.01,
 Gaussian 09:  EM64L-G09RevB.01 12-Aug-2010

 ------------------------------------------------------
 # opt=modredundant B3LYP/cc-pVDZ Geom=PrintInputOrient
 ------------------------------------------------------

 -------------------------------
 CY3 Dihedral Scan at MP2/6-31G*
 -------------------------------
 Symbolic Z-matrix:
 Charge =  0 Multiplicity = 1

 SCF Done:  E(RB3LYP) =  -2398.26711824     A.U. after   22 cycles
 SCF Done:  E(RB3LYP) =  -2398.26712606     A.U. after    8 cycles
 Optimization completed.
    -- Stationary point found.
 SCF Done:  E(RB3LYP) =  -2398.26152667     A.U. after   13 cycles
 SCF Done:  E(RB3LYP) =  -2398.26154493     A.U. after   10 cycles
 SCF Done:  E(RB3LYP) =  -2398.26301707     A.U. after   12 cycles
 SCF Done:  E(RB3LYP) =  -2398.26331333     A.U. after   11 cycles
 SCF Done:  E(RB3LYP) =  -2398.26333777     A.U. after   11 cycles
 SCF Done:  E(RB3LYP) =  -2398.26334203     A.U. after   10 cycles
 SCF Done:  E(RB3LYP) =  -2398.26334300     A.U. after    8 cycles
 SCF Done:  E(RB3LYP) =  -2398.26334347     A.U. after    8 cycles
 SCF Done:  E(RB3LYP) =  -2398.26334458     A.U. after    8 cycles
 SCF Done:  E(RB3LYP) =  -2398.26334455     A.U. after    7 cycles
 Optimization completed.
    -- Stationary point found.
 SCF Done:  E(RB3LYP) =  -2398.24804031     A.U. after   14 cycles
 SCF Done:  E(RB3LYP) =  -2398.25105135     A.U. after   13 cycles
 SCF Done:  E(RB3LYP) =  -2398.25117090     A.U. after   11 cycles
 SCF Done:  E(RB3LYP) =  -2398.25118158     A.U. after   11 cycles
 SCF Done:  E(RB3LYP) =  -2398.25118384     A.U. after    8 cycles
 SCF Done:  E(RB3LYP) =  -2398.25118435     A.U. after    8 cycles
 SCF Done:  E(RB3LYP) =  -2398.25118448     A.U. after    7 cycles
 SCF Done:  E(RB3LYP) =  -2398.25118453     A.U. after    7 cycles
 Optimization completed.
    -- Stationary point found.

                         Standard orientation:
 ---------------------------------------------------------------------
 Center     Atomic      Atomic             Coordinates (Angstroms)
 Number     Number       Type             X           Y           Z
 ---------------------------------------------------------------------
      1          6           0       -6.088107    1.149865   -0.219867
      2          6           0       -4.750484    0.794967   -0.035212
      3          6           0       -4.327643   -0.538979    0.108679
      4          6           0       -5.256179   -1.565200    0.067641
      5          6           0       -6.610841   -1.230053   -0.096874
      6          6           0       -7.015806    0.105870   -0.249842
      7          6           0       -2.825568   -0.537603    0.267088
      8          6           0       -2.483294    0.933056    0.220289
      9          7           0       -3.609690    1.632002    0.028402
     10          6           0       -3.660853    3.092616   -0.141204
     11          6           0       -2.282257    3.666916   -0.475684
     12          6           0       -1.244833    3.074910    0.486610
     13          6           0       -1.219855    1.566438    0.341774
     14          8           0        0.025572    3.707887    0.409064
     15          6           0        1.080286    3.039305   -0.284473
     16          6           0        1.195385    1.580228    0.120461
     17          6           0       -0.024035    0.881688    0.311341
     18          6           0        2.360151    3.803075    0.054699
     19          6           0        3.599804    3.101973   -0.499026
     20          7           0        3.594077    1.682574   -0.146673
     21          6           0        2.439532    0.997899    0.183270
     22          6           0        2.834883   -0.420945    0.589314
     23          6           0        4.262137   -0.475315    0.085539
     24          6           0        4.714574    0.866363    0.075661
     25          6           0        6.064912    1.192270   -0.037694
     26          6           0        6.984957    0.135511   -0.100805
     27          6           0        6.534965   -1.184021   -0.086043
     28          6           0        5.171094   -1.514562    0.031459
     29         16           0       -7.869478   -2.574533   -0.068179
     30         16           0        7.733190   -2.505794   -0.228861
     31          8           0       -8.167085   -2.655621    1.400294
     32          8           0       -8.975584   -2.030102   -0.918835
     33          8           0       -7.120219   -3.745775   -0.629961
     34          8           0        9.013040   -1.943760   -0.691589
     35          8           0        7.875995   -2.891336    1.387337
     36          8           0        7.116177   -3.679022   -0.884050
     37          1           0       -6.404879    2.188199   -0.335585
     38          1           0       -4.988720   -2.621065    0.144160
     39          1           0       -8.078811    0.297248   -0.406694
     40          1           0       -2.313694   -1.087111   -0.540574
     41          1           0       -2.490363   -0.982194    1.219235
     42          1           0       -4.060375    3.526434    0.790932
     43          1           0       -4.385285    3.306086   -0.939399
     44          1           0       -2.314748    4.761158   -0.372066
     45          1           0       -2.009670    3.432385   -1.517748
     46          1           0       -1.587620    3.295132    1.515877
     47          1           0        0.891179    3.090129   -1.377137
     48          1           0       -0.020910   -0.210715    0.359173
     49          1           0        2.424035    3.875287    1.152242
     50          1           0        2.308292    4.826268   -0.344007
     51          1           0        4.508776    3.565034   -0.090250
     52          1           0        3.653075    3.189541   -1.599457
     53          1           0        2.154381   -1.180064    0.175888
     54          1           0        2.824653   -0.521585    1.687802
     55          1           0        6.410130    2.224576   -0.104146
     56          1           0        8.052731    0.332743   -0.199256
     57          1           0        4.860275   -2.559592    0.071747
     58          1           0        7.996719   -3.860507    1.409104
 ---------------------------------------------------------------------

 The electronic state is 1-A.
 Alpha  occ. eigenvalues --  -89.14909 -89.01765 -19.21112 -19.19733 -19.16613
 Alpha  occ. eigenvalues --  -19.16550 -19.02820 -19.02810 -19.02734 -14.46004
 Alpha  occ. eigenvalues --  -14.44429 -10.31026 -10.30666 -10.30026 -10.29962
 Alpha  occ. eigenvalues --  -10.29514 -10.29428 -10.29287 -10.27074 -10.26552
 Alpha  occ. eigenvalues --  -10.26516 -10.25830 -10.25765 -10.25659 -10.25466
 Alpha  occ. eigenvalues --  -10.25444 -10.25383 -10.25368 -10.24906 -10.24899
 Alpha  occ. eigenvalues --  -10.24636 -10.22225 -10.21501 -10.19655 -10.19375
 Alpha  occ. eigenvalues --  -10.18941  -8.18073  -8.04600  -6.14497  -6.14340
 Alpha  occ. eigenvalues --   -6.14202  -6.00931  -6.00903  -6.00895  -1.15737
 Alpha  occ. eigenvalues --   -1.09480  -1.06184  -1.05801  -1.05244  -1.03022
 Alpha  occ. eigenvalues --   -1.01666  -0.92477  -0.89746  -0.89005  -0.88410
 Alpha  occ. eigenvalues --   -0.88134  -0.87694  -0.86770  -0.85233  -0.82461
 Alpha  occ. eigenvalues --   -0.81498  -0.80088  -0.77563  -0.77055  -0.75005
 Alpha  occ. eigenvalues --   -0.74391  -0.73314  -0.71240  -0.68503  -0.67972
 Alpha  occ. eigenvalues --   -0.66452  -0.65209  -0.64508  -0.62486  -0.61647
 Alpha  occ. eigenvalues --   -0.59807  -0.58648  -0.58003  -0.57678  -0.57107
 Alpha  occ. eigenvalues --   -0.55897  -0.55118  -0.54617  -0.54172  -0.53122
 Alpha  occ. eigenvalues --   -0.52575  -0.52291  -0.51213  -0.50962  -0.50046
 Alpha  occ. eigenvalues --   -0.49778  -0.49213  -0.48641  -0.48396  -0.47876
 Alpha  occ. eigenvalues --   -0.47782  -0.46627  -0.46265  -0.45912  -0.45844
 Alpha  occ. eigenvalues --   -0.45215  -0.44796  -0.44571  -0.44349  -0.43961
 Alpha  occ. eigenvalues --   -0.43268  -0.42983  -0.42206  -0.41352  -0.40494
 Alpha  occ. eigenvalues --   -0.40010  -0.39862  -0.39334  -0.38820  -0.38352
 Alpha  occ. eigenvalues --   -0.38032  -0.36741  -0.36356  -0.36153  -0.35894
 Alpha  occ. eigenvalues --   -0.34903  -0.34752  -0.34158  -0.34075  -0.31965
 Alpha  occ. eigenvalues --   -0.31447  -0.31155  -0.30548  -0.27109  -0.26751
 Alpha  occ. eigenvalues --   -0.23992  -0.23696  -0.23550  -0.20896  -0.20662
 Alpha  occ. eigenvalues --   -0.19702  -0.16531
 Alpha virt. eigenvalues --   -0.13664  -0.07993  -0.07205  -0.04565  -0.02118
 Alpha virt. eigenvalues --   -0.00583  -0.00064   0.00163   0.00599   0.00966
 Alpha virt. eigenvalues --    0.01916   0.02865   0.03995   0.04083   0.04949

 Mulliken atomic charges:
              1
     1  C   -0.008753
     2  C    0.223394
     3  C   -0.131215
     4  C    0.045199
     5  C   -0.242977
     6  C    0.108771
     7  C    0.178371
     8  C    0.081786
     9  N   -0.265350
    10  C    0.088353
    11  C    0.047046
    12  C    0.157368
    13  C   -0.120099
    14  O   -0.321251
    15  C    0.133589
    16  C   -0.097995
    17  C    0.014220
    18  C    0.029639
    19  C    0.105409
    20  N   -0.289532
    21  C    0.120300
    22  C    0.122762
    23  C   -0.107642
    24  C    0.207697
    25  C   -0.017033
    26  C    0.108113
    27  C   -0.252416
    28  C    0.072944
    29  S    0.986588
    30  S    0.992516
    31  O   -0.517378
    32  O   -0.520152
    33  O   -0.524981
    34  O   -0.411700
    35  O   -0.326337
    36  O   -0.436483
    37  H   -0.027939
    38  H   -0.024836
    39  H   -0.006034
    40  H    0.082274
    41  H    0.081485
    42  H    0.058350
    43  H    0.061383
    44  H    0.031442
    45  H    0.024989
    46  H    0.026681
    47  H    0.012944
    48  H   -0.028560
    49  H    0.030155
    50  H    0.026806
    51  H    0.048214
    52  H    0.047294
    53  H    0.058352
    54  H    0.083603
    55  H   -0.007720
    56  H    0.006503
    57  H   -0.008543
    58  H    0.190385
 Sum of Mulliken atomic charges =   0.00000

 Dipole moment (field-independent basis, Debye):
    X=             22.7876    Y=             16.9117    Z=              1.5883  Tot=             28.4219
 Quadrupole moment (field-independent basis, Debye-Ang):
   XX=           -436.9574   YY=           -224.0452   ZZ=           -227.0909
   XY=            -78.2741   XZ=             13.2995   YZ=            -14.1990

 Normal termination of Gaussian 09 at Fri Mar 20 14:40:32 2015.
