 Gaussian 09, Revision B.01,
 Gaussian 09:  EM64L-G09RevB.01 12-Aug-2010

 ------------------------------------------------------
 # opt=modredundant B3LYP/cc-pVDZ Geom=PrintInputOrient
 ------------------------------------------------------

 -------------------------------
 CY3 Dihedral Scan at MP2/6-31G*
 -------------------------------
 Symbolic Z-matrix:
 Charge =  0 Multiplicity = 1

 SCF Done:  E(RB3LYP) =  -2398.26711824     A.U. after   22 cycles
 SCF Done:  E(RB3LYP) =  -2398.26712609     A.U. after    8 cycles
 Optimization completed.
    -- Stationary point found.
 SCF Done:  E(RB3LYP) =  -2398.26390648     A.U. after   13 cycles
 SCF Done:  E(RB3LYP) =  -2398.26391393     A.U. after   11 cycles
 SCF Done:  E(RB3LYP) =  -2398.26457041     A.U. after   12 cycles
 SCF Done:  E(RB3LYP) =  -2398.26465971     A.U. after   11 cycles
 SCF Done:  E(RB3LYP) =  -2398.26467141     A.U. after   10 cycles
 SCF Done:  E(RB3LYP) =  -2398.26467354     A.U. after    8 cycles
 SCF Done:  E(RB3LYP) =  -2398.26467412     A.U. after    8 cycles
 SCF Done:  E(RB3LYP) =  -2398.26467470     A.U. after    8 cycles
 Optimization completed.
    -- Stationary point found.
 SCF Done:  E(RB3LYP) =  -2398.25256522     A.U. after   16 cycles
 SCF Done:  E(RB3LYP) =  -2398.25733520     A.U. after   17 cycles
 SCF Done:  E(RB3LYP) =  -2398.25384227     A.U. after   23 cycles
 SCF Done:  E(RB3LYP) =  -2398.25722752     A.U. after   24 cycles
 SCF Done:  E(RB3LYP) =  -2398.25675413     A.U. after   13 cycles
 SCF Done:  E(RB3LYP) =  -2398.25733519     A.U. after   13 cycles
 SCF Done:  E(RB3LYP) =  -2398.25636945     A.U. after   17 cycles
 SCF Done:  E(RB3LYP) =  -2398.25731352     A.U. after   15 cycles
 SCF Done:  E(RB3LYP) =  -2398.25733614     A.U. after   13 cycles
 SCF Done:  E(RB3LYP) =  -2398.25733628     A.U. after    7 cycles
 Optimization completed.
    -- Stationary point found.

                         Standard orientation:
 ---------------------------------------------------------------------
 Center     Atomic      Atomic             Coordinates (Angstroms)
 Number     Number       Type             X           Y           Z
 ---------------------------------------------------------------------
      1          6           0       -6.050566    1.132133   -0.333800
      2          6           0       -4.717267    0.794328   -0.090190
      3          6           0       -4.293681   -0.528275    0.129363
      4          6           0       -5.216743   -1.561085    0.110024
      5          6           0       -6.566085   -1.242467   -0.114039
      6          6           0       -6.971698    0.082942   -0.344297
      7          6           0       -2.796952   -0.511234    0.331270
      8          6           0       -2.459192    0.957466    0.225778
      9          7           0       -3.582906    1.640332   -0.030950
     10          6           0       -3.635815    3.091596   -0.265947
     11          6           0       -2.251034    3.658680   -0.586623
     12          6           0       -1.237008    3.116028    0.428152
     13          6           0       -1.202768    1.602034    0.354726
     14          8           0        0.032750    3.751551    0.351939
     15          6           0        1.103785    3.049625   -0.280320
     16          6           0        1.216872    1.618663    0.213103
     17          6           0       -0.003495    0.922152    0.397975
     18          6           0        2.375279    3.838135    0.028530
     19          6           0        3.622658    3.096799   -0.449530
     20          7           0        3.619952    1.716667    0.037983
     21          6           0        2.461162    1.045879    0.350701
     22          6           0        2.832266   -0.347253    0.821202
     23          6           0        4.327203   -0.377444    0.596451
     24          6           0        4.755677    0.926990    0.261352
     25          6           0        6.078831    1.173724   -0.126353
     26          6           0        6.903367    0.076782   -0.388994
     27          6           0        6.475589   -1.207316   -0.040157
     28          6           0        5.192037   -1.452585    0.474974
     29         16           0       -7.823399   -2.587733   -0.065524
     30         16           0        7.563438   -2.595343   -0.344633
     31          8           0       -8.308732   -2.477201    1.349807
     32          8           0       -8.808846   -2.169278   -1.113193
     33          8           0       -7.017650   -3.815150   -0.371238
     34          8           0        8.577053   -2.189661   -1.330979
     35          8           0        8.306536   -2.703763    1.142221
     36          8           0        6.766075   -3.832291   -0.497903
     37          1           0       -6.368059    2.161925   -0.508507
     38          1           0       -4.951587   -2.611310    0.248664
     39          1           0       -8.028780    0.264453   -0.545748
     40          1           0       -2.259952   -1.095220   -0.434753
     41          1           0       -2.488047   -0.909335    1.312435
     42          1           0       -4.063600    3.563584    0.634624
     43          1           0       -4.338249    3.266269   -1.092729
     44          1           0       -2.291497    4.756203   -0.532080
     45          1           0       -1.948428    3.380655   -1.609517
     46          1           0       -1.606022    3.381523    1.437438
     47          1           0        0.932512    3.031244   -1.377015
     48          1           0        0.002025   -0.166452    0.503040
     49          1           0        2.420093    3.990112    1.118811
     50          1           0        2.333199    4.829367   -0.444947
     51          1           0        4.526253    3.598628   -0.076455
     52          1           0        3.683864    3.082674   -1.553263
     53          1           0        2.301136   -1.128248    0.254340
     54          1           0        2.563549   -0.481030    1.883120
     55          1           0        6.405693    2.174381   -0.414406
     56          1           0        7.899109    0.216655   -0.810171
     57          1           0        4.873670   -2.475603    0.681111
     58          1           0        8.271176   -3.651680    1.373954
 ---------------------------------------------------------------------

 The electronic state is 1-A.
 Alpha  occ. eigenvalues --  -89.15005 -89.01740 -19.21123 -19.19700 -19.16749
 Alpha  occ. eigenvalues --  -19.16606 -19.02813 -19.02766 -19.02706 -14.45938
 Alpha  occ. eigenvalues --  -14.44719 -10.30962 -10.30738 -10.29990 -10.29938
 Alpha  occ. eigenvalues --  -10.29623 -10.29562 -10.29245 -10.26946 -10.26556
 Alpha  occ. eigenvalues --  -10.26465 -10.25888 -10.25791 -10.25682 -10.25439
 Alpha  occ. eigenvalues --  -10.25431 -10.25403 -10.25341 -10.24934 -10.24860
 Alpha  occ. eigenvalues --  -10.24575 -10.22197 -10.21456 -10.19550 -10.19421
 Alpha  occ. eigenvalues --  -10.18911  -8.18161  -8.04574  -6.14584  -6.14433
 Alpha  occ. eigenvalues --   -6.14287  -6.00905  -6.00878  -6.00869  -1.15857
 Alpha  occ. eigenvalues --   -1.09454  -1.06139  -1.06027  -1.05291  -1.03157
 Alpha  occ. eigenvalues --   -1.01638  -0.92511  -0.89723  -0.89017  -0.88376
 Alpha  occ. eigenvalues --   -0.88114  -0.87722  -0.86818  -0.85194  -0.82487
 Alpha  occ. eigenvalues --   -0.81573  -0.80071  -0.77626  -0.77061  -0.74983
 Alpha  occ. eigenvalues --   -0.74361  -0.73307  -0.71306  -0.68503  -0.67977
 Alpha  occ. eigenvalues --   -0.66438  -0.65218  -0.64723  -0.62524  -0.61633
 Alpha  occ. eigenvalues --   -0.59952  -0.58655  -0.58062  -0.57755  -0.57150
 Alpha  occ. eigenvalues --   -0.55927  -0.55084  -0.54582  -0.54144  -0.53184
 Alpha  occ. eigenvalues --   -0.52547  -0.52406  -0.51148  -0.50963  -0.49996
 Alpha  occ. eigenvalues --   -0.49704  -0.49246  -0.48860  -0.48404  -0.47761
 Alpha  occ. eigenvalues --   -0.47683  -0.46769  -0.46331  -0.45888  -0.45716
 Alpha  occ. eigenvalues --   -0.45202  -0.44927  -0.44617  -0.44368  -0.43957
 Alpha  occ. eigenvalues --   -0.43317  -0.43023  -0.42275  -0.41573  -0.40477
 Alpha  occ. eigenvalues --   -0.40047  -0.39902  -0.39391  -0.38698  -0.38343
 Alpha  occ. eigenvalues --   -0.38063  -0.36765  -0.36343  -0.36163  -0.35877
 Alpha  occ. eigenvalues --   -0.34859  -0.34715  -0.34237  -0.34090  -0.32274
 Alpha  occ. eigenvalues --   -0.31349  -0.31262  -0.30570  -0.27060  -0.26723
 Alpha  occ. eigenvalues --   -0.23942  -0.23676  -0.23493  -0.20912  -0.20593
 Alpha  occ. eigenvalues --   -0.19669  -0.16504
 Alpha virt. eigenvalues --   -0.13669  -0.07793  -0.07323  -0.04541  -0.02078
 Alpha virt. eigenvalues --   -0.00555   0.00026   0.00235   0.00687   0.01077
 Alpha virt. eigenvalues --    0.02008   0.02972   0.03922   0.04026   0.04360

 Mulliken atomic charges:
              1
     1  C   -0.010379
     2  C    0.223586
     3  C   -0.129270
     4  C    0.037803
     5  C   -0.243158
     6  C    0.115175
     7  C    0.178832
     8  C    0.081433
     9  N   -0.265845
    10  C    0.088361
    11  C    0.047584
    12  C    0.157518
    13  C   -0.119051
    14  O   -0.320850
    15  C    0.130764
    16  C   -0.092503
    17  C    0.010885
    18  C    0.036883
    19  C    0.098967
    20  N   -0.294608
    21  C    0.091102
    22  C    0.167123
    23  C   -0.147149
    24  C    0.218852
    25  C   -0.000984
    26  C    0.102898
    27  C   -0.253217
    28  C    0.062617
    29  S    0.986343
    30  S    0.996909
    31  O   -0.517040
    32  O   -0.520446
    33  O   -0.524763
    34  O   -0.410161
    35  O   -0.323573
    36  O   -0.440308
    37  H   -0.028017
    38  H   -0.024466
    39  H   -0.006388
    40  H    0.082103
    41  H    0.081210
    42  H    0.058200
    43  H    0.061198
    44  H    0.031232
    45  H    0.024776
    46  H    0.026517
    47  H    0.012293
    48  H   -0.026858
    49  H    0.031073
    50  H    0.026615
    51  H    0.049294
    52  H    0.046618
    53  H    0.074484
    54  H    0.079331
    55  H   -0.007091
    56  H    0.008532
    57  H   -0.011691
    58  H    0.190707
 Sum of Mulliken atomic charges =   0.00000

 Dipole moment (field-independent basis, Debye):
    X=             23.1954    Y=             17.2683    Z=              1.6885  Tot=             28.9668
 Quadrupole moment (field-independent basis, Debye-Ang):
   XX=           -428.0997   YY=           -228.2825   ZZ=           -225.8734
   XY=            -77.1942   XZ=             15.4429   YZ=            -16.1967

 Normal termination of Gaussian 09 at Sat Mar 21 09:17:31 2015.
