 Gaussian 09, Revision B.01,
 Gaussian 09:  EM64L-G09RevB.01 12-Aug-2010

 ------------------------------------------------------
 # opt=modredundant B3LYP/cc-pVDZ Geom=PrintInputOrient
 ------------------------------------------------------

 -------------------------------
 CY3 Dihedral Scan at MP2/6-31G*
 -------------------------------
 Symbolic Z-matrix:
 Charge =  0 Multiplicity = 1

 SCF Done:  E(RB3LYP) =  -2398.26711824     A.U. after   22 cycles
 SCF Done:  E(RB3LYP) =  -2398.26712608     A.U. after    8 cycles
 Optimization completed.
    -- Stationary point found.
 SCF Done:  E(RB3LYP) =  -2398.26162064     A.U. after   16 cycles
 SCF Done:  E(RB3LYP) =  -2398.26661898     A.U. after   16 cycles
 SCF Done:  E(RB3LYP) =  -2398.26695553     A.U. after   16 cycles
 SCF Done:  E(RB3LYP) =  -2398.26705348     A.U. after   12 cycles
 SCF Done:  E(RB3LYP) =  -2398.26706202     A.U. after   10 cycles
 SCF Done:  E(RB3LYP) =  -2398.26706245     A.U. after    8 cycles
 Optimization completed.
 SCF Done:  E(RB3LYP) =  -2398.26144115     A.U. after   17 cycles
 SCF Done:  E(RB3LYP) =  -2398.26676619     A.U. after   16 cycles
 SCF Done:  E(RB3LYP) =  -2398.26705082     A.U. after   12 cycles
 SCF Done:  E(RB3LYP) =  -2398.26705256     A.U. after    8 cycles
 SCF Done:  E(RB3LYP) =  -2398.26705310     A.U. after    8 cycles
 SCF Done:  E(RB3LYP) =  -2398.26705323     A.U. after    7 cycles
    -- Stationary point found.
 SCF Done:  E(RB3LYP) =  -2398.26144036     A.U. after   18 cycles
 SCF Done:  E(RB3LYP) =  -2398.26662555     A.U. after   16 cycles
 SCF Done:  E(RB3LYP) =  -2398.26692262     A.U. after   15 cycles
 SCF Done:  E(RB3LYP) =  -2398.26693793     A.U. after   11 cycles
 SCF Done:  E(RB3LYP) =  -2398.26693934     A.U. after    8 cycles
 SCF Done:  E(RB3LYP) =  -2398.26693951     A.U. after    7 cycles
 Optimization completed.
    -- Stationary point found.

                         Standard orientation:
 ---------------------------------------------------------------------
 Center     Atomic      Atomic             Coordinates (Angstroms)
 Number     Number       Type             X           Y           Z
 ---------------------------------------------------------------------
      1          6           0       -6.110795    1.168161   -0.049561
      2          6           0       -4.771703    0.799426    0.074051
      3          6           0       -4.351205   -0.543528    0.131597
      4          6           0       -5.284198   -1.561318    0.058252
      5          6           0       -6.641582   -1.213027   -0.068359
      6          6           0       -7.044645    0.128936   -0.119149
      7          6           0       -2.845932   -0.556011    0.258344
      8          6           0       -2.498007    0.914348    0.280299
      9          7           0       -3.625784    1.627169    0.158077
     10          6           0       -3.673412    3.095011    0.070775
     11          6           0       -2.303846    3.679913   -0.281413
     12          6           0       -1.237123    3.035116    0.612484
     13          6           0       -1.227841    1.534716    0.393315
     14          8           0        0.035147    3.663128    0.519321
     15          6           0        1.045868    3.021795   -0.259386
     16          6           0        1.176083    1.548747    0.084158
     17          6           0       -0.037140    0.845874    0.290589
     18          6           0        2.347054    3.770237    0.024014
     19          6           0        3.545351    3.068740   -0.613691
     20          7           0        3.563844    1.655569   -0.239454
     21          6           0        2.419033    0.957505    0.069609
     22          6           0        2.801080   -0.483693    0.351367
     23          6           0        4.292960   -0.485819    0.105492
     24          6           0        4.686254    0.820698   -0.250116
     25          6           0        6.007998    1.140405   -0.564540
     26          6           0        6.956354    0.112920   -0.500170
     27          6           0        6.565630   -1.174486   -0.128047
     28          6           0        5.230937   -1.500823    0.167892
     29         16           0       -7.886994   -2.565974   -0.167286
     30         16           0        7.800341   -2.469498   -0.070028
     31          8           0       -9.189091   -1.840053   -0.311953
     32          8           0       -7.418469   -3.322539   -1.374741
     33          8           0       -7.671527   -3.273304    1.137830
     34          8           0        8.993671   -2.024290   -0.807968
     35          8           0        8.142879   -2.427282    1.560927
     36          8           0        7.167949   -3.781584   -0.327464
     37          1           0       -6.427256    2.212558   -0.084224
     38          1           0       -5.008687   -2.616875    0.092336
     39          1           0       -8.114276    0.324258   -0.215841
     40          1           0       -2.352842   -1.065527   -0.586207
     41          1           0       -2.493224   -1.048983    1.180040
     42          1           0       -4.035905    3.479240    1.039166
     43          1           0       -4.424364    3.355451   -0.687879
     44          1           0       -2.326016    4.767524   -0.120917
     45          1           0       -2.069372    3.497837   -1.343038
     46          1           0       -1.540136    3.206798    1.663138
     47          1           0        0.790031    3.111261   -1.335993
     48          1           0       -0.038886   -0.247838    0.290892
     49          1           0        2.475947    3.819552    1.117046
     50          1           0        2.283104    4.801548   -0.351107
     51          1           0        4.481462    3.532272   -0.271023
     52          1           0        3.518844    3.150066   -1.715932
     53          1           0        2.261625   -1.178109   -0.314378
     54          1           0        2.546242   -0.768408    1.385302
     55          1           0        6.304669    2.146080   -0.863305
     56          1           0        8.000775    0.302494   -0.748602
     57          1           0        4.961429   -2.526754    0.422299
     58          1           0        8.259372   -3.361712    1.820423
 ---------------------------------------------------------------------

 The electronic state is 1-A.
 Alpha  occ. eigenvalues --  -89.14952 -89.01722 -19.21121 -19.19724 -19.16675
 Alpha  occ. eigenvalues --  -19.16578 -19.02814 -19.02715 -19.02709 -14.45954
 Alpha  occ. eigenvalues --  -14.44619 -10.31003 -10.30785 -10.30006 -10.29949
 Alpha  occ. eigenvalues --  -10.29564 -10.29515 -10.29262 -10.27032 -10.26552
 Alpha  occ. eigenvalues --  -10.26507 -10.25958 -10.25800 -10.25601 -10.25441
 Alpha  occ. eigenvalues --  -10.25426 -10.25373 -10.25360 -10.24946 -10.24882
 Alpha  occ. eigenvalues --  -10.24578 -10.22166 -10.21497 -10.19844 -10.19170
 Alpha  occ. eigenvalues --  -10.18902  -8.18114  -8.04556  -6.14538  -6.14382
 Alpha  occ. eigenvalues --   -6.14242  -6.00887  -6.00860  -6.00851  -1.15786
 Alpha  occ. eigenvalues --   -1.09490  -1.06155  -1.06039  -1.05270  -1.03075
 Alpha  occ. eigenvalues --   -1.01627  -0.92549  -0.89741  -0.89037  -0.88399
 Alpha  occ. eigenvalues --   -0.88066  -0.87747  -0.86842  -0.85204  -0.82520
 Alpha  occ. eigenvalues --   -0.81597  -0.80095  -0.77642  -0.77086  -0.75023
 Alpha  occ. eigenvalues --   -0.74409  -0.73311  -0.71319  -0.68524  -0.68023
 Alpha  occ. eigenvalues --   -0.66464  -0.65278  -0.64694  -0.62516  -0.61664
 Alpha  occ. eigenvalues --   -0.59947  -0.58711  -0.58037  -0.57698  -0.57114
 Alpha  occ. eigenvalues --   -0.55938  -0.55091  -0.54539  -0.54184  -0.53214
 Alpha  occ. eigenvalues --   -0.52543  -0.52451  -0.51357  -0.50866  -0.50147
 Alpha  occ. eigenvalues --   -0.49700  -0.49253  -0.48727  -0.48432  -0.47798
 Alpha  occ. eigenvalues --   -0.47766  -0.46762  -0.46365  -0.45955  -0.45721
 Alpha  occ. eigenvalues --   -0.45206  -0.44791  -0.44645  -0.44273  -0.43975
 Alpha  occ. eigenvalues --   -0.43296  -0.43049  -0.42332  -0.41592  -0.40667
 Alpha  occ. eigenvalues --   -0.40089  -0.39997  -0.39394  -0.38882  -0.38279
 Alpha  occ. eigenvalues --   -0.38087  -0.36798  -0.36308  -0.36191  -0.35906
 Alpha  occ. eigenvalues --   -0.34842  -0.34718  -0.34149  -0.34118  -0.32079
 Alpha  occ. eigenvalues --   -0.31414  -0.31357  -0.30627  -0.27203  -0.26700
 Alpha  occ. eigenvalues --   -0.23857  -0.23728  -0.23507  -0.21008  -0.20436
 Alpha  occ. eigenvalues --   -0.19700  -0.16489
 Alpha virt. eigenvalues --   -0.13673  -0.07441  -0.07192  -0.04589  -0.02139
 Alpha virt. eigenvalues --   -0.00532  -0.00010   0.00254   0.00831   0.00987
 Alpha virt. eigenvalues --    0.02064   0.03003   0.03892   0.03983   0.04890

 Mulliken atomic charges:
              1
     1  C   -0.005325
     2  C    0.223927
     3  C   -0.140020
     4  C    0.067914
     5  C   -0.243270
     6  C    0.094398
     7  C    0.178711
     8  C    0.080741
     9  N   -0.265207
    10  C    0.088650
    11  C    0.047609
    12  C    0.156841
    13  C   -0.117869
    14  O   -0.319887
    15  C    0.129068
    16  C   -0.097677
    17  C    0.009719
    18  C    0.038752
    19  C    0.095697
    20  N   -0.314279
    21  C    0.081985
    22  C    0.186478
    23  C   -0.155786
    24  C    0.268377
    25  C   -0.010295
    26  C    0.108857
    27  C   -0.251948
    28  C    0.050763
    29  S    0.987899
    30  S    0.994727
    31  O   -0.520138
    32  O   -0.524726
    33  O   -0.523828
    34  O   -0.410715
    35  O   -0.325120
    36  O   -0.437841
    37  H   -0.028001
    38  H   -0.025559
    39  H   -0.005427
    40  H    0.081354
    41  H    0.081231
    42  H    0.057917
    43  H    0.061214
    44  H    0.031221
    45  H    0.024784
    46  H    0.026342
    47  H    0.011933
    48  H   -0.025959
    49  H    0.032317
    50  H    0.026613
    51  H    0.048114
    52  H    0.045742
    53  H    0.079343
    54  H    0.079895
    55  H   -0.010750
    56  H    0.005266
    57  H   -0.015173
    58  H    0.190398
 Sum of Mulliken atomic charges =   0.00000

 Dipole moment (field-independent basis, Debye):
    X=             22.8345    Y=             17.1039    Z=              1.7819  Tot=             28.5856
 Quadrupole moment (field-independent basis, Debye-Ang):
   XX=           -437.3670   YY=           -228.0309   ZZ=           -224.8549
   XY=            -77.1194   XZ=              5.4059   YZ=            -15.5529

 Normal termination of Gaussian 09 at Tue Mar 17 21:41:58 2015.
