 Gaussian 09, Revision B.01,
 Gaussian 09:  EM64L-G09RevB.01 12-Aug-2010

 ------------------------------------------------------
 # opt=modredundant B3LYP/cc-pVDZ Geom=PrintInputOrient
 ------------------------------------------------------

 -------------------------------
 CY3 Dihedral Scan at MP2/6-31G*
 -------------------------------
 Symbolic Z-matrix:
 Charge =  0 Multiplicity = 1

 SCF Done:  E(RB3LYP) =  -2398.26711824     A.U. after   22 cycles
 SCF Done:  E(RB3LYP) =  -2398.26712608     A.U. after    8 cycles
 Optimization completed.
    -- Stationary point found.
 SCF Done:  E(RB3LYP) =  -2398.25848186     A.U. after   16 cycles
 SCF Done:  E(RB3LYP) =  -2398.26487973     A.U. after   13 cycles
 SCF Done:  E(RB3LYP) =  -2398.26536777     A.U. after   12 cycles
 SCF Done:  E(RB3LYP) =  -2398.26541952     A.U. after   11 cycles
 SCF Done:  E(RB3LYP) =  -2398.26542570     A.U. after   11 cycles
 SCF Done:  E(RB3LYP) =  -2398.26542760     A.U. after    9 cycles
 SCF Done:  E(RB3LYP) =  -2398.26542811     A.U. after    8 cycles
 SCF Done:  E(RB3LYP) =  -2398.26542828     A.U. after    7 cycles
 SCF Done:  E(RB3LYP) =  -2398.26542915     A.U. after    6 cycles
 Optimization completed.
    -- Stationary point found.
 SCF Done:  E(RB3LYP) =  -2398.25043840     A.U. after   17 cycles
 SCF Done:  E(RB3LYP) =  -2398.25711640     A.U. after   13 cycles
 SCF Done:  E(RB3LYP) =  -2398.25744445     A.U. after   12 cycles
 SCF Done:  E(RB3LYP) =  -2398.25746340     A.U. after   11 cycles
 SCF Done:  E(RB3LYP) =  -2398.25746728     A.U. after   11 cycles
 SCF Done:  E(RB3LYP) =  -2398.25746832     A.U. after   10 cycles
 SCF Done:  E(RB3LYP) =  -2398.25746846     A.U. after    8 cycles
 SCF Done:  E(RB3LYP) =  -2398.25746855     A.U. after    7 cycles
 SCF Done:  E(RB3LYP) =  -2398.25746850     A.U. after    7 cycles
 Optimization completed.
    -- Stationary point found.

                         Standard orientation:
 ---------------------------------------------------------------------
 Center     Atomic      Atomic             Coordinates (Angstroms)
 Number     Number       Type             X           Y           Z
 ---------------------------------------------------------------------
      1          6           0       -6.076911    1.199810   -0.191133
      2          6           0       -4.769135    0.782494    0.064661
      3          6           0       -4.414489   -0.571510    0.204789
      4          6           0       -5.383142   -1.554186    0.086867
      5          6           0       -6.708884   -1.156190   -0.153756
      6          6           0       -7.045375    0.199241   -0.300506
      7          6           0       -2.925025   -0.641646    0.444812
      8          6           0       -2.514133    0.811558    0.443087
      9          7           0       -3.597534    1.567082    0.206167
     10          6           0       -3.585790    3.032560    0.049581
     11          6           0       -2.176307    3.579876   -0.216494
     12          6           0       -1.230497    2.922745    0.791696
     13          6           0       -1.238413    1.400435    0.617521
     14          8           0        0.112105    3.357973    0.875343
     15          6           0        0.894432    2.804793   -0.192639
     16          6           0        1.174495    1.383598    0.250802
     17          6           0       -0.040671    0.696521    0.564609
     18          6           0        2.181659    3.626982   -0.283017
     19          6           0        3.310119    2.854346   -0.969389
     20          7           0        3.493356    1.549904   -0.335662
     21          6           0        2.434128    0.845761    0.193664
     22          6           0        2.935283   -0.512807    0.641265
     23          6           0        4.389171   -0.480058    0.225909
     24          6           0        4.657896    0.775513   -0.358597
     25          6           0        5.914533    1.103097   -0.870515
     26          6           0        6.926315    0.141254   -0.772183
     27          6           0        6.660846   -1.092100   -0.174353
     28          6           0        5.390176   -1.430300    0.321739
     29         16           0       -8.023521   -2.443165   -0.246275
     30         16           0        7.972081   -2.306796   -0.080554
     31          8           0       -8.449476   -2.524794    1.190031
     32          8           0       -9.027816   -1.840366   -1.180085
     33          8           0       -7.282077   -3.641453   -0.759421
     34          8           0        9.037376   -1.931446   -1.024470
     35          8           0        8.507886   -1.995642    1.467200
     36          8           0        7.396608   -3.669289   -0.053687
     37          1           0       -6.341704    2.253079   -0.302432
     38          1           0       -5.167252   -2.622355    0.155105
     39          1           0       -8.086831    0.441633   -0.519068
     40          1           0       -2.393851   -1.202329   -0.342185
     41          1           0       -2.661548   -1.113920    1.406345
     42          1           0       -4.013630    3.471001    0.966615
     43          1           0       -4.265460    3.277104   -0.778321
     44          1           0       -2.190389    4.672384   -0.088459
     45          1           0       -1.874099    3.360451   -1.252647
     46          1           0       -1.631170    3.135069    1.799594
     47          1           0        0.335200    2.821158   -1.144167
     48          1           0       -0.050780   -0.395499    0.639390
     49          1           0        2.482202    3.876968    0.747059
     50          1           0        2.008568    4.572806   -0.816318
     51          1           0        4.251752    3.415399   -0.892461
     52          1           0        3.098462    2.705228   -2.045060
     53          1           0        2.372367   -1.328497    0.156951
     54          1           0        2.811387   -0.641345    1.729019
     55          1           0        6.113193    2.064643   -1.344495
     56          1           0        7.922635    0.338467   -1.168335
     57          1           0        5.214533   -2.418271    0.749528
     58          1           0        8.700144   -2.873290    1.850247
 ---------------------------------------------------------------------

 The electronic state is 1-A.
 Alpha  occ. eigenvalues --  -89.14902 -89.01757 -19.21067 -19.19876 -19.16635
 Alpha  occ. eigenvalues --  -19.16524 -19.02815 -19.02796 -19.02724 -14.46003
 Alpha  occ. eigenvalues --  -14.44435 -10.31013 -10.30642 -10.29994 -10.29687
 Alpha  occ. eigenvalues --  -10.29578 -10.29527 -10.29453 -10.26930 -10.26670
 Alpha  occ. eigenvalues --  -10.26467 -10.25869 -10.25719 -10.25526 -10.25478
 Alpha  occ. eigenvalues --  -10.25444 -10.25335 -10.25325 -10.25283 -10.24988
 Alpha  occ. eigenvalues --  -10.24439 -10.22213 -10.21503 -10.19633 -10.19388
 Alpha  occ. eigenvalues --  -10.18923  -8.18064  -8.04592  -6.14488  -6.14333
 Alpha  occ. eigenvalues --   -6.14192  -6.00923  -6.00895  -6.00886  -1.15737
 Alpha  occ. eigenvalues --   -1.10190  -1.06110  -1.05907  -1.05216  -1.03030
 Alpha  occ. eigenvalues --   -1.01656  -0.92446  -0.89476  -0.88813  -0.88396
 Alpha  occ. eigenvalues --   -0.88129  -0.87634  -0.86645  -0.85245  -0.82475
 Alpha  occ. eigenvalues --   -0.81530  -0.80180  -0.77692  -0.76887  -0.75039
 Alpha  occ. eigenvalues --   -0.74227  -0.73360  -0.71129  -0.68831  -0.67870
 Alpha  occ. eigenvalues --   -0.66315  -0.65279  -0.64627  -0.62479  -0.61706
 Alpha  occ. eigenvalues --   -0.60111  -0.58709  -0.58127  -0.57578  -0.57076
 Alpha  occ. eigenvalues --   -0.55911  -0.55121  -0.54463  -0.54100  -0.53450
 Alpha  occ. eigenvalues --   -0.52645  -0.52154  -0.51368  -0.50766  -0.50153
 Alpha  occ. eigenvalues --   -0.49562  -0.49318  -0.48786  -0.48404  -0.47725
 Alpha  occ. eigenvalues --   -0.47671  -0.46768  -0.46275  -0.45891  -0.45843
 Alpha  occ. eigenvalues --   -0.45367  -0.44786  -0.44557  -0.44210  -0.44007
 Alpha  occ. eigenvalues --   -0.43691  -0.42758  -0.42292  -0.41352  -0.40616
 Alpha  occ. eigenvalues --   -0.40177  -0.40153  -0.39400  -0.38740  -0.38348
 Alpha  occ. eigenvalues --   -0.38007  -0.36923  -0.36357  -0.36207  -0.35898
 Alpha  occ. eigenvalues --   -0.35039  -0.34784  -0.34099  -0.33937  -0.32031
 Alpha  occ. eigenvalues --   -0.31635  -0.31295  -0.30639  -0.27011  -0.26725
 Alpha  occ. eigenvalues --   -0.23972  -0.23687  -0.23540  -0.20889  -0.20652
 Alpha  occ. eigenvalues --   -0.19693  -0.16523
 Alpha virt. eigenvalues --   -0.13706  -0.07400  -0.07120  -0.04666  -0.02125
 Alpha virt. eigenvalues --   -0.00616  -0.00058   0.00113   0.00737   0.01154
 Alpha virt. eigenvalues --    0.01755   0.02878   0.03719   0.03892   0.04714

 Mulliken atomic charges:
              1
     1  C   -0.009361
     2  C    0.224050
     3  C   -0.133703
     4  C    0.044263
     5  C   -0.243153
     6  C    0.109838
     7  C    0.181874
     8  C    0.084441
     9  N   -0.266442
    10  C    0.087860
    11  C    0.048491
    12  C    0.141884
    13  C   -0.120610
    14  O   -0.297621
    15  C    0.072673
    16  C   -0.042814
    17  C    0.004293
    18  C    0.048875
    19  C    0.094699
    20  N   -0.310842
    21  C    0.068489
    22  C    0.192549
    23  C   -0.160041
    24  C    0.269486
    25  C   -0.010699
    26  C    0.109442
    27  C   -0.251893
    28  C    0.049045
    29  S    0.986551
    30  S    0.994621
    31  O   -0.516895
    32  O   -0.520613
    33  O   -0.525055
    34  O   -0.410734
    35  O   -0.325079
    36  O   -0.438578
    37  H   -0.028265
    38  H   -0.024426
    39  H   -0.006307
    40  H    0.080887
    41  H    0.082309
    42  H    0.059455
    43  H    0.061322
    44  H    0.033953
    45  H    0.025824
    46  H    0.021130
    47  H    0.011584
    48  H   -0.025070
    49  H    0.037641
    50  H    0.023176
    51  H    0.046922
    52  H    0.043552
    53  H    0.077434
    54  H    0.080736
    55  H   -0.010928
    56  H    0.004848
    57  H   -0.015197
    58  H    0.190129
 Sum of Mulliken atomic charges =   0.00000

 Dipole moment (field-independent basis, Debye):
    X=             23.0113    Y=             16.6304    Z=              1.6154  Tot=             28.4377
 Quadrupole moment (field-independent basis, Debye-Ang):
   XX=           -447.8455   YY=           -227.2428   ZZ=           -223.0379
   XY=            -75.6239   XZ=              3.9663   YZ=            -19.0518

 Normal termination of Gaussian 09 at Thu Mar 19 00:36:34 2015.
