 Gaussian 09, Revision B.01,
 Gaussian 09:  EM64L-G09RevB.01 12-Aug-2010

 ------------------------------------------------------
 # opt=modredundant B3LYP/cc-pVDZ Geom=PrintInputOrient
 ------------------------------------------------------

 -------------------------------
 CY3 Dihedral Scan at MP2/6-31G*
 -------------------------------
 Symbolic Z-matrix:
 Charge =  0 Multiplicity = 1

 SCF Done:  E(RB3LYP) =  -2398.26711824     A.U. after   22 cycles
 SCF Done:  E(RB3LYP) =  -2398.26712608     A.U. after    8 cycles
 Optimization completed.
    -- Stationary point found.
 SCF Done:  E(RB3LYP) =  -2398.26029389     A.U. after   15 cycles
 SCF Done:  E(RB3LYP) =  -2398.26043409     A.U. after   11 cycles
 SCF Done:  E(RB3LYP) =  -2398.26326577     A.U. after   13 cycles
 SCF Done:  E(RB3LYP) =  -2398.26394486     A.U. after   13 cycles
 SCF Done:  E(RB3LYP) =  -2398.26399267     A.U. after   11 cycles
 SCF Done:  E(RB3LYP) =  -2398.26399555     A.U. after    9 cycles
 SCF Done:  E(RB3LYP) =  -2398.26399605     A.U. after    8 cycles
 SCF Done:  E(RB3LYP) =  -2398.26399624     A.U. after    8 cycles
 Optimization completed.
    -- Stationary point found.
 SCF Done:  E(RB3LYP) =  -2398.25398741     A.U. after   23 cycles
 SCF Done:  E(RB3LYP) =  -2398.25425014     A.U. after   15 cycles
 SCF Done:  E(RB3LYP) =  -2398.25408825     A.U. after   19 cycles
 SCF Done:  E(RB3LYP) =  -2398.25434139     A.U. after   19 cycles
 SCF Done:  E(RB3LYP) =  -2398.25438438     A.U. after   15 cycles
 SCF Done:  E(RB3LYP) =  -2398.25437358     A.U. after   13 cycles
 SCF Done:  E(RB3LYP) =  -2398.25438846     A.U. after   14 cycles
 SCF Done:  E(RB3LYP) =  -2398.25438980     A.U. after   11 cycles
 SCF Done:  E(RB3LYP) =  -2398.25439024     A.U. after    8 cycles
 SCF Done:  E(RB3LYP) =  -2398.25439030     A.U. after    7 cycles
 Optimization completed.
    -- Stationary point found.

                         Standard orientation:
 ---------------------------------------------------------------------
 Center     Atomic      Atomic             Coordinates (Angstroms)
 Number     Number       Type             X           Y           Z
 ---------------------------------------------------------------------
      1          6           0        6.094908    1.098562   -0.079240
      2          6           0        4.776395    0.827162   -0.438211
      3          6           0        4.285031   -0.490347   -0.590273
      4          6           0        5.117479   -1.570008   -0.368682
      5          6           0        6.435243   -1.315044    0.058357
      6          6           0        6.921465   -0.004888    0.166109
      7          6           0        2.906496   -0.346730   -1.194734
      8          6           0        2.538556    1.052038   -0.760262
      9          7           0        3.690448    1.737754   -0.640526
     10          6           0        3.756759    3.170410   -0.307531
     11          6           0        2.434693    3.669144    0.283312
     12          6           0        1.273866    3.189696   -0.596534
     13          6           0        1.273657    1.675218   -0.668741
     14          8           0        0.023921    3.775892   -0.252498
     15          6           0       -0.906770    2.986138    0.486577
     16          6           0       -1.085362    1.604242   -0.117498
     17          6           0        0.088843    0.966760   -0.580972
     18          6           0       -2.224050    3.759582    0.489137
     19          6           0       -3.353561    2.936183    1.106360
     20          7           0       -3.422026    1.616617    0.479178
     21          6           0       -2.325402    1.003807   -0.077443
     22          6           0       -2.746639   -0.363525   -0.581568
     23          6           0       -4.204077   -0.428822   -0.185241
     24          6           0       -4.545724    0.782147    0.450555
     25          6           0       -5.823285    1.022668    0.957864
     26          6           0       -6.782283    0.015146    0.801364
     27          6           0       -6.444822   -1.174508    0.153603
     28          6           0       -5.152367   -1.424661   -0.338250
     29         16           0        7.511122   -2.740172    0.504582
     30         16           0       -7.691462   -2.449144   -0.014182
     31          8           0        7.033560   -3.820254   -0.420556
     32          8           0        8.894626   -2.222967    0.254555
     33          8           0        7.148016   -2.935964    1.947297
     34          8           0       -8.791760   -2.164094    0.920991
     35          8           0       -8.210075   -2.101390   -1.559907
     36          8           0       -7.047787   -3.778958   -0.081413
     37          1           0        6.479214    2.116649    0.011363
     38          1           0        4.807019   -2.607767   -0.506042
     39          1           0        7.968178    0.124410    0.447094
     40          1           0        2.182978   -1.117511   -0.897614
     41          1           0        2.963647   -0.340671   -2.298867
     42          1           0        4.009891    3.720824   -1.229165
     43          1           0        4.583118    3.312868    0.400857
     44          1           0        2.449226    4.768057    0.321837
     45          1           0        2.310847    3.293450    1.312261
     46          1           0        1.463776    3.558494   -1.622722
     47          1           0       -0.541629    2.867358    1.528175
     48          1           0        0.079929   -0.106434   -0.788416
     49          1           0       -2.468236    4.013915   -0.554676
     50          1           0       -2.111590    4.701642    1.044329
     51          1           0       -4.317520    3.442953    0.956265
     52          1           0       -3.210648    2.809893    2.195150
     53          1           0       -2.145712   -1.162731   -0.115987
     54          1           0       -2.602775   -0.448250   -1.671072
     55          1           0       -6.077203    1.950424    1.471119
     56          1           0       -7.792806    0.142503    1.190045
     57          1           0       -4.920110   -2.381228   -0.808270
     58          1           0       -8.361393   -2.970744   -1.978744
 ---------------------------------------------------------------------

 The electronic state is 1-A.
 Alpha  occ. eigenvalues --  -89.15010 -89.01654 -19.21182 -19.19731 -19.16736
 Alpha  occ. eigenvalues --  -19.16633 -19.02729 -19.02723 -19.02603 -14.45317
 Alpha  occ. eigenvalues --  -14.44854 -10.30999 -10.30828 -10.29989 -10.29972
 Alpha  occ. eigenvalues --  -10.29661 -10.29621 -10.28921 -10.27140 -10.26682
 Alpha  occ. eigenvalues --  -10.26654 -10.26073 -10.25892 -10.25683 -10.25490
 Alpha  occ. eigenvalues --  -10.25487 -10.25256 -10.25170 -10.25015 -10.24711
 Alpha  occ. eigenvalues --  -10.24700 -10.21874 -10.21315 -10.19553 -10.19112
 Alpha  occ. eigenvalues --  -10.18752  -8.18172  -8.04490  -6.14596  -6.14440
 Alpha  occ. eigenvalues --   -6.14301  -6.00820  -6.00794  -6.00785  -1.15847
 Alpha  occ. eigenvalues --   -1.09499  -1.06245  -1.05571  -1.05329  -1.03140
 Alpha  occ. eigenvalues --   -1.01550  -0.92657  -0.89652  -0.88951  -0.88303
 Alpha  occ. eigenvalues --   -0.88010  -0.87820  -0.86762  -0.84987  -0.82549
 Alpha  occ. eigenvalues --   -0.81690  -0.79940  -0.77586  -0.76869  -0.74911
 Alpha  occ. eigenvalues --   -0.74344  -0.73124  -0.71336  -0.68431  -0.68041
 Alpha  occ. eigenvalues --   -0.66485  -0.65157  -0.64731  -0.62330  -0.61403
 Alpha  occ. eigenvalues --   -0.59868  -0.58763  -0.58014  -0.57700  -0.57114
 Alpha  occ. eigenvalues --   -0.55999  -0.54696  -0.54500  -0.54153  -0.53328
 Alpha  occ. eigenvalues --   -0.52797  -0.52072  -0.51332  -0.51029  -0.50189
 Alpha  occ. eigenvalues --   -0.49761  -0.48981  -0.48698  -0.48355  -0.47872
 Alpha  occ. eigenvalues --   -0.47541  -0.46785  -0.46476  -0.45823  -0.45723
 Alpha  occ. eigenvalues --   -0.45180  -0.44735  -0.44613  -0.44351  -0.43809
 Alpha  occ. eigenvalues --   -0.43199  -0.42815  -0.42195  -0.41655  -0.40716
 Alpha  occ. eigenvalues --   -0.40017  -0.39831  -0.39313  -0.38835  -0.38238
 Alpha  occ. eigenvalues --   -0.37634  -0.36914  -0.36258  -0.36164  -0.35917
 Alpha  occ. eigenvalues --   -0.34736  -0.34418  -0.34195  -0.34088  -0.32139
 Alpha  occ. eigenvalues --   -0.31481  -0.31418  -0.30636  -0.27048  -0.26407
 Alpha  occ. eigenvalues --   -0.23998  -0.23597  -0.23461  -0.20789  -0.20544
 Alpha  occ. eigenvalues --   -0.19559  -0.16427
 Alpha virt. eigenvalues --   -0.13887  -0.07521  -0.07283  -0.04700  -0.01874
 Alpha virt. eigenvalues --   -0.00848  -0.00103   0.00182   0.00789   0.01011
 Alpha virt. eigenvalues --    0.02117   0.02938   0.03714   0.04015   0.04835

 Mulliken atomic charges:
              1
     1  C   -0.000755
     2  C    0.187918
     3  C   -0.095999
     4  C    0.045515
     5  C   -0.242781
     6  C    0.104448
     7  C    0.135757
     8  C    0.115399
     9  N   -0.262723
    10  C    0.099631
    11  C    0.038422
    12  C    0.157960
    13  C   -0.122871
    14  O   -0.320130
    15  C    0.131177
    16  C   -0.103755
    17  C    0.027137
    18  C    0.038438
    19  C    0.095102
    20  N   -0.312936
    21  C    0.084916
    22  C    0.185372
    23  C   -0.154401
    24  C    0.267676
    25  C   -0.009241
    26  C    0.109308
    27  C   -0.251506
    28  C    0.051065
    29  S    0.986461
    30  S    0.995054
    31  O   -0.524902
    32  O   -0.519448
    33  O   -0.518794
    34  O   -0.410015
    35  O   -0.325238
    36  O   -0.436882
    37  H   -0.024688
    38  H   -0.020483
    39  H   -0.006044
    40  H    0.047816
    41  H    0.088208
    42  H    0.052663
    43  H    0.058505
    44  H    0.029657
    45  H    0.027358
    46  H    0.024602
    47  H    0.014724
    48  H   -0.027298
    49  H    0.031735
    50  H    0.027719
    51  H    0.048627
    52  H    0.047978
    53  H    0.082689
    54  H    0.079785
    55  H   -0.009886
    56  H    0.005908
    57  H   -0.014466
    58  H    0.190517
 Sum of Mulliken atomic charges =   0.00000

 Dipole moment (field-independent basis, Debye):
    X=            -21.8347    Y=             18.2270    Z=             -4.1758  Tot=             28.7475
 Quadrupole moment (field-independent basis, Debye-Ang):
   XX=           -411.1355   YY=           -237.2995   ZZ=           -220.0408
   XY=             78.7708   XZ=            -10.9798   YZ=             21.2488

 Normal termination of Gaussian 09 at Sat Mar 21 19:26:38 2015.
