 Gaussian 09, Revision B.01,
 Gaussian 09:  EM64L-G09RevB.01 12-Aug-2010

 ------------------------------------------------------
 # opt=modredundant B3LYP/cc-pVDZ Geom=PrintInputOrient
 ------------------------------------------------------

 -------------------------------
 CY3 Dihedral Scan at MP2/6-31G*
 -------------------------------
 Symbolic Z-matrix:
 Charge =  0 Multiplicity = 1

 SCF Done:  E(RB3LYP) =  -2398.26711824     A.U. after   22 cycles
 SCF Done:  E(RB3LYP) =  -2398.26712607     A.U. after    8 cycles
 Optimization completed.
    -- Stationary point found.
 SCF Done:  E(RB3LYP) =  -2398.26065341     A.U. after   13 cycles
 SCF Done:  E(RB3LYP) =  -2398.26520959     A.U. after   13 cycles
 SCF Done:  E(RB3LYP) =  -2398.26569984     A.U. after   12 cycles
 SCF Done:  E(RB3LYP) =  -2398.26574632     A.U. after   11 cycles
 SCF Done:  E(RB3LYP) =  -2398.26575299     A.U. after   11 cycles
 SCF Done:  E(RB3LYP) =  -2398.26575416     A.U. after    8 cycles
 SCF Done:  E(RB3LYP) =  -2398.26575462     A.U. after    8 cycles
 SCF Done:  E(RB3LYP) =  -2398.26575504     A.U. after    8 cycles
 SCF Done:  E(RB3LYP) =  -2398.26575558     A.U. after    6 cycles
 Optimization completed.
    -- Stationary point found.
 SCF Done:  E(RB3LYP) =  -2398.25492113     A.U. after   14 cycles
 SCF Done:  E(RB3LYP) =  -2398.26045680     A.U. after   13 cycles
 SCF Done:  E(RB3LYP) =  -2398.26082261     A.U. after   12 cycles
 SCF Done:  E(RB3LYP) =  -2398.26083596     A.U. after   12 cycles
 SCF Done:  E(RB3LYP) =  -2398.26083853     A.U. after   12 cycles
 SCF Done:  E(RB3LYP) =  -2398.26084133     A.U. after   11 cycles
 SCF Done:  E(RB3LYP) =  -2398.26084173     A.U. after    8 cycles
 SCF Done:  E(RB3LYP) =  -2398.26084203     A.U. after    8 cycles
 SCF Done:  E(RB3LYP) =  -2398.26084207     A.U. after    8 cycles
 Optimization completed.
    -- Stationary point found.

                         Standard orientation:
 ---------------------------------------------------------------------
 Center     Atomic      Atomic             Coordinates (Angstroms)
 Number     Number       Type             X           Y           Z
 ---------------------------------------------------------------------
      1          6           0       -6.123328    1.189858    0.217417
      2          6           0       -4.787016    0.785593    0.185820
      3          6           0       -4.399316   -0.555933    0.014258
      4          6           0       -5.362790   -1.539132   -0.133149
      5          6           0       -6.714467   -1.157832   -0.084986
      6          6           0       -7.085282    0.187387    0.075855
      7          6           0       -2.890008   -0.607492    0.008382
      8          6           0       -2.502574    0.837404    0.217644
      9          7           0       -3.616959    1.575604    0.293295
     10          6           0       -3.632770    3.040017    0.435667
     11          6           0       -2.282966    3.653267    0.058294
     12          6           0       -1.159115    2.870307    0.748268
     13          6           0       -1.208987    1.414114    0.318979
     14          8           0        0.115794    3.489050    0.621185
     15          6           0        1.008265    2.924564   -0.339535
     16          6           0        1.172794    1.421127   -0.111706
     17          6           0       -0.048226    0.715192    0.063864
     18          6           0        2.336304    3.690828   -0.265678
     19          6           0        3.378247    2.870454   -1.025096
     20          7           0        3.548772    1.615699   -0.291280
     21          6           0        2.419192    0.839954   -0.106842
     22          6           0        2.841509   -0.582751    0.195206
     23          6           0        4.344918   -0.511204    0.040907
     24          6           0        4.702627    0.815753   -0.275784
     25          6           0        6.026806    1.189398   -0.509380
     26          6           0        7.011193    0.200559   -0.405848
     27          6           0        6.652981   -1.107026   -0.071903
     28          6           0        5.318942   -1.489537    0.143664
     29         16           0       -8.010550   -2.461428   -0.196164
     30         16           0        7.933321   -2.353089    0.039845
     31          8           0       -8.173648   -2.823254    1.251012
     32          8           0       -9.171026   -1.743422   -0.813234
     33          8           0       -7.356980   -3.511184   -1.044212
     34          8           0        9.145839   -1.853637   -0.629024
     35          8           0        8.186810   -2.316311    1.687103
     36          8           0        7.368389   -3.685981   -0.264011
     37          1           0       -6.413532    2.234391    0.345938
     38          1           0       -5.126623   -2.592279   -0.298415
     39          1           0       -8.151092    0.422318    0.072088
     40          1           0       -2.481942   -0.990821   -0.941656
     41          1           0       -2.475548   -1.238875    0.812431
     42          1           0       -3.902447    3.273172    1.479495
     43          1           0       -4.437782    3.424594   -0.205546
     44          1           0       -2.263972    4.704487    0.380181
     45          1           0       -2.143393    3.630924   -1.034944
     46          1           0       -1.359767    2.890328    1.836534
     47          1           0        0.577287    3.061449   -1.352981
     48          1           0       -0.077594   -0.371547   -0.059085
     49          1           0        2.640841    3.800680    0.785978
     50          1           0        2.219709    4.692410   -0.702857
     51          1           0        4.341766    3.395183   -1.060817
     52          1           0        3.061959    2.656728   -2.061737
     53          1           0        2.376101   -1.299552   -0.502636
     54          1           0        2.536609   -0.882407    1.211146
     55          1           0        6.300897    2.212215   -0.769555
     56          1           0        8.059381    0.435991   -0.591115
     57          1           0        5.076709   -2.529831    0.365223
     58          1           0        8.332377   -3.247685    1.942853
 ---------------------------------------------------------------------

 The electronic state is 1-A.
 Alpha  occ. eigenvalues --  -89.14869 -89.01936 -19.21043 -19.19687 -19.16596
 Alpha  occ. eigenvalues --  -19.16495 -19.02994 -19.02982 -19.02925 -14.46261
 Alpha  occ. eigenvalues --  -14.43843 -10.31197 -10.30408 -10.30064 -10.29852
 Alpha  occ. eigenvalues --  -10.29423 -10.29273 -10.29121 -10.26887 -10.26530
 Alpha  occ. eigenvalues --  -10.26436 -10.25791 -10.25666 -10.25663 -10.25659
 Alpha  occ. eigenvalues --  -10.25532 -10.25458 -10.25199 -10.24983 -10.24656
 Alpha  occ. eigenvalues --  -10.24649 -10.22416 -10.21688 -10.19824 -10.19564
 Alpha  occ. eigenvalues --  -10.19145  -8.18032  -8.04772  -6.14456  -6.14300
 Alpha  occ. eigenvalues --   -6.14160  -6.01103  -6.01074  -6.01066  -1.15703
 Alpha  occ. eigenvalues --   -1.09468  -1.06397  -1.05628  -1.05191  -1.02990
 Alpha  occ. eigenvalues --   -1.01844  -0.92417  -0.89799  -0.89005  -0.88585
 Alpha  occ. eigenvalues --   -0.88313  -0.87545  -0.86628  -0.85365  -0.82425
 Alpha  occ. eigenvalues --   -0.81381  -0.80101  -0.77648  -0.77034  -0.74980
 Alpha  occ. eigenvalues --   -0.74300  -0.73260  -0.71108  -0.68391  -0.67830
 Alpha  occ. eigenvalues --   -0.66398  -0.65287  -0.64614  -0.62634  -0.61827
 Alpha  occ. eigenvalues --   -0.60007  -0.58666  -0.57926  -0.57519  -0.57062
 Alpha  occ. eigenvalues --   -0.55911  -0.55225  -0.54398  -0.54102  -0.53021
 Alpha  occ. eigenvalues --   -0.52592  -0.52240  -0.51570  -0.50622  -0.50021
 Alpha  occ. eigenvalues --   -0.49333  -0.49077  -0.48646  -0.48406  -0.47913
 Alpha  occ. eigenvalues --   -0.47630  -0.46610  -0.46225  -0.46080  -0.45876
 Alpha  occ. eigenvalues --   -0.45333  -0.44958  -0.44735  -0.44272  -0.44074
 Alpha  occ. eigenvalues --   -0.43206  -0.42783  -0.42443  -0.41333  -0.40437
 Alpha  occ. eigenvalues --   -0.40151  -0.39893  -0.39331  -0.38823  -0.38533
 Alpha  occ. eigenvalues --   -0.38162  -0.36863  -0.36522  -0.36139  -0.36031
 Alpha  occ. eigenvalues --   -0.34964  -0.34725  -0.34066  -0.34036  -0.31992
 Alpha  occ. eigenvalues --   -0.31412  -0.31208  -0.30458  -0.27234  -0.26919
 Alpha  occ. eigenvalues --   -0.24192  -0.23868  -0.23728  -0.21066  -0.20833
 Alpha  occ. eigenvalues --   -0.19881  -0.16702
 Alpha virt. eigenvalues --   -0.13871  -0.07412  -0.07189  -0.04969  -0.02306
 Alpha virt. eigenvalues --   -0.00757   0.00008   0.00281   0.01005   0.01214
 Alpha virt. eigenvalues --    0.02023   0.02935   0.03746   0.03963   0.04887

 Mulliken atomic charges:
              1
     1  C   -0.008303
     2  C    0.222861
     3  C   -0.131098
     4  C    0.045297
     5  C   -0.243056
     6  C    0.109692
     7  C    0.179062
     8  C    0.080611
     9  N   -0.263381
    10  C    0.087831
    11  C    0.049938
    12  C    0.154450
    13  C   -0.117204
    14  O   -0.315182
    15  C    0.118985
    16  C   -0.105552
    17  C    0.012791
    18  C    0.057995
    19  C    0.090584
    20  N   -0.300487
    21  C    0.069513
    22  C    0.193897
    23  C   -0.156889
    24  C    0.260377
    25  C   -0.007495
    26  C    0.110317
    27  C   -0.250950
    28  C    0.048424
    29  S    0.987015
    30  S    0.994194
    31  O   -0.516103
    32  O   -0.519276
    33  O   -0.523969
    34  O   -0.411084
    35  O   -0.324831
    36  O   -0.438394
    37  H   -0.026933
    38  H   -0.024086
    39  H   -0.005491
    40  H    0.083015
    41  H    0.082072
    42  H    0.059146
    43  H    0.061630
    44  H    0.032236
    45  H    0.025063
    46  H    0.025359
    47  H    0.011268
    48  H   -0.023198
    49  H    0.033288
    50  H    0.023985
    51  H    0.036703
    52  H    0.040616
    53  H    0.076622
    54  H    0.078902
    55  H   -0.009904
    56  H    0.004336
    57  H   -0.015383
    58  H    0.190173
 Sum of Mulliken atomic charges =   0.00000

 Dipole moment (field-independent basis, Debye):
    X=             22.2725    Y=             16.1171    Z=              1.4164  Tot=             27.5288
 Quadrupole moment (field-independent basis, Debye-Ang):
   XX=           -447.6382   YY=           -226.2279   ZZ=           -223.8211
   XY=            -76.4598   XZ=              0.8937   YZ=            -13.8840

 Normal termination of Gaussian 09 at Fri Mar 20 10:51:32 2015.
