 Gaussian 09, Revision B.01,
 Gaussian 09:  EM64L-G09RevB.01 12-Aug-2010

 ------------------------------------------------------
 # opt=modredundant B3LYP/cc-pVDZ Geom=PrintInputOrient
 ------------------------------------------------------

 -------------------------------
 CY3 Dihedral Scan at MP2/6-31G*
 -------------------------------
 Symbolic Z-matrix:
 Charge =  0 Multiplicity = 1

 SCF Done:  E(RB3LYP) =  -2398.26711824     A.U. after   22 cycles
 SCF Done:  E(RB3LYP) =  -2398.26712605     A.U. after    8 cycles
 Optimization completed.
    -- Stationary point found.
 SCF Done:  E(RB3LYP) =  -2398.25857164     A.U. after   17 cycles
 SCF Done:  E(RB3LYP) =  -2398.26402743     A.U. after   13 cycles
 SCF Done:  E(RB3LYP) =  -2398.26468209     A.U. after   12 cycles
 SCF Done:  E(RB3LYP) =  -2398.26494219     A.U. after   12 cycles
 SCF Done:  E(RB3LYP) =  -2398.26503198     A.U. after   12 cycles
 SCF Done:  E(RB3LYP) =  -2398.26512840     A.U. after   12 cycles
 SCF Done:  E(RB3LYP) =  -2398.26520905     A.U. after   13 cycles
 SCF Done:  E(RB3LYP) =  -2398.26524526     A.U. after   12 cycles
 SCF Done:  E(RB3LYP) =  -2398.26636929     A.U. after    9 cycles
 SCF Done:  E(RB3LYP) =  -2398.26636929     A.U. after    8 cycles
 Optimization completed.
    -- Stationary point found.
 SCF Done:  E(RB3LYP) =  -2398.25873696     A.U. after   14 cycles
 SCF Done:  E(RB3LYP) =  -2398.26384202     A.U. after   14 cycles
 SCF Done:  E(RB3LYP) =  -2398.26451094     A.U. after   13 cycles
 SCF Done:  E(RB3LYP) =  -2398.26455922     A.U. after   12 cycles
 SCF Done:  E(RB3LYP) =  -2398.26456277     A.U. after    8 cycles
 SCF Done:  E(RB3LYP) =  -2398.26456338     A.U. after    8 cycles
 SCF Done:  E(RB3LYP) =  -2398.26456351     A.U. after    8 cycles
 SCF Done:  E(RB3LYP) =  -2398.26456355     A.U. after    8 cycles
 Optimization completed.
    -- Stationary point found.

                         Standard orientation:
 ---------------------------------------------------------------------
 Center     Atomic      Atomic             Coordinates (Angstroms)
 Number     Number       Type             X           Y           Z
 ---------------------------------------------------------------------
      1          6           0       -6.046662    1.080696    0.731190
      2          6           0       -4.740823    0.748899    0.362797
      3          6           0       -4.399243   -0.500005   -0.189497
      4          6           0       -5.378602   -1.459313   -0.385018
      5          6           0       -6.695322   -1.153935   -0.002332
      6          6           0       -7.023137    0.102344    0.534336
      7          6           0       -2.916763   -0.493645   -0.479636
      8          6           0       -2.488078    0.874674   -0.007461
      9          7           0       -3.564708    1.530452    0.444609
     10          6           0       -3.474388    2.868423    1.036533
     11          6           0       -2.355874    3.666817    0.373577
     12          6           0       -1.026694    2.914075    0.385674
     13          6           0       -1.194246    1.443002    0.037867
     14          8           0       -0.147457    3.570585   -0.524394
     15          6           0        1.128664    2.968711   -0.723819
     16          6           0        1.178166    1.477012   -0.420011
     17          6           0       -0.039411    0.759716   -0.287833
     18          6           0        2.254708    3.695175    0.023123
     19          6           0        3.606831    3.108233   -0.392657
     20          7           0        3.582677    1.643603   -0.330737
     21          6           0        2.423912    0.900795   -0.299686
     22          6           0        2.795348   -0.558019   -0.109154
     23          6           0        4.306473   -0.516202   -0.095482
     24          6           0        4.714631    0.826317   -0.229932
     25          6           0        6.059919    1.196432   -0.262682
     26          6           0        7.014540    0.179136   -0.147463
     27          6           0        6.605517   -1.147244    0.001015
     28          6           0        5.250810   -1.520942    0.019121
     29         16           0       -7.994782   -2.447911   -0.167641
     30         16           0        7.852266   -2.426440    0.125519
     31          8           0       -7.948739   -3.072595    1.196174
     32          8           0       -9.231432   -1.657745   -0.467396
     33          8           0       -7.475215   -3.308443   -1.280410
     34          8           0        9.136027   -1.887794   -0.352185
     35          8           0        7.924240   -2.561173    1.785468
     36          8           0        7.308841   -3.708954   -0.372101
     37          1           0       -6.303826    2.054146    1.153255
     38          1           0       -5.183671   -2.437483   -0.829513
     39          1           0       -8.069285    0.292349    0.780319
     40          1           0       -2.689543   -0.623386   -1.550795
     41          1           0       -2.367714   -1.284421    0.059841
     42          1           0       -3.312308    2.753471    2.122643
     43          1           0       -4.440708    3.368797    0.895839
     44          1           0       -2.249447    4.639536    0.874105
     45          1           0       -2.621900    3.864504   -0.678087
     46          1           0       -0.593949    2.967534    1.407325
     47          1           0        1.311197    3.090068   -1.808028
     48          1           0       -0.051361   -0.327208   -0.412729
     49          1           0        2.110243    3.589795    1.110771
     50          1           0        2.238783    4.767773   -0.218249
     51          1           0        4.404122    3.467037    0.275478
     52          1           0        3.871844    3.418930   -1.418882
     53          1           0        2.394787   -1.178507   -0.928150
     54          1           0        2.380667   -0.960452    0.829655
     55          1           0        6.371606    2.233588   -0.388604
     56          1           0        8.079819    0.407854   -0.184129
     57          1           0        4.973604   -2.572133    0.108898
     58          1           0        8.009735   -3.518532    1.959216
 ---------------------------------------------------------------------

 The electronic state is 1-A.
 Alpha  occ. eigenvalues --  -89.15047 -89.01749 -19.21211 -19.19687 -19.16778
 Alpha  occ. eigenvalues --  -19.16668 -19.02818 -19.02791 -19.02732 -14.45657
 Alpha  occ. eigenvalues --  -14.44793 -10.30876 -10.30680 -10.29948 -10.29863
 Alpha  occ. eigenvalues --  -10.29688 -10.29579 -10.29120 -10.27116 -10.26665
 Alpha  occ. eigenvalues --  -10.26391 -10.26066 -10.25897 -10.25698 -10.25482
 Alpha  occ. eigenvalues --  -10.25456 -10.25199 -10.25015 -10.24992 -10.24818
 Alpha  occ. eigenvalues --  -10.24777 -10.22130 -10.21426 -10.19540 -10.19374
 Alpha  occ. eigenvalues --  -10.18902  -8.18209  -8.04585  -6.14632  -6.14477
 Alpha  occ. eigenvalues --   -6.14337  -6.00915  -6.00889  -6.00880  -1.15884
 Alpha  occ. eigenvalues --   -1.09478  -1.06126  -1.06020  -1.05361  -1.03179
 Alpha  occ. eigenvalues --   -1.01652  -0.92633  -0.89576  -0.89000  -0.88395
 Alpha  occ. eigenvalues --   -0.88120  -0.87781  -0.86712  -0.85130  -0.82532
 Alpha  occ. eigenvalues --   -0.81598  -0.80061  -0.77532  -0.77232  -0.74879
 Alpha  occ. eigenvalues --   -0.74408  -0.73274  -0.71330  -0.68339  -0.67998
 Alpha  occ. eigenvalues --   -0.66360  -0.65404  -0.64738  -0.62673  -0.61745
 Alpha  occ. eigenvalues --   -0.59651  -0.58727  -0.57931  -0.57657  -0.57156
 Alpha  occ. eigenvalues --   -0.55921  -0.55167  -0.54605  -0.54206  -0.53352
 Alpha  occ. eigenvalues --   -0.52481  -0.52211  -0.51399  -0.50936  -0.50341
 Alpha  occ. eigenvalues --   -0.49567  -0.49135  -0.48807  -0.48183  -0.47864
 Alpha  occ. eigenvalues --   -0.47705  -0.46926  -0.46687  -0.45900  -0.45532
 Alpha  occ. eigenvalues --   -0.45043  -0.44966  -0.44437  -0.44107  -0.43893
 Alpha  occ. eigenvalues --   -0.43787  -0.42839  -0.42325  -0.41250  -0.40766
 Alpha  occ. eigenvalues --   -0.40053  -0.39879  -0.39438  -0.38890  -0.38380
 Alpha  occ. eigenvalues --   -0.38006  -0.36562  -0.36342  -0.36274  -0.35876
 Alpha  occ. eigenvalues --   -0.35155  -0.34732  -0.34245  -0.34084  -0.32178
 Alpha  occ. eigenvalues --   -0.31478  -0.31311  -0.30618  -0.27160  -0.26684
 Alpha  occ. eigenvalues --   -0.23967  -0.23689  -0.23497  -0.20897  -0.20623
 Alpha  occ. eigenvalues --   -0.19654  -0.16519
 Alpha virt. eigenvalues --   -0.13761  -0.07547  -0.07279  -0.04666  -0.02108
 Alpha virt. eigenvalues --   -0.00573   0.00055   0.00385   0.00804   0.01049
 Alpha virt. eigenvalues --    0.01882   0.02907   0.03476   0.03981   0.04784

 Mulliken atomic charges:
              1
     1  C   -0.007735
     2  C    0.219077
     3  C   -0.133540
     4  C    0.041106
     5  C   -0.243062
     6  C    0.114257
     7  C    0.184071
     8  C    0.084937
     9  N   -0.259266
    10  C    0.102991
    11  C    0.028484
    12  C    0.135706
    13  C   -0.098429
    14  O   -0.315193
    15  C    0.158709
    16  C   -0.145760
    17  C    0.014056
    18  C    0.048988
    19  C    0.090992
    20  N   -0.315685
    21  C    0.079177
    22  C    0.184226
    23  C   -0.153909
    24  C    0.267167
    25  C   -0.009135
    26  C    0.108597
    27  C   -0.251684
    28  C    0.050628
    29  S    0.986262
    30  S    0.995170
    31  O   -0.517253
    32  O   -0.519663
    33  O   -0.524189
    34  O   -0.410218
    35  O   -0.325113
    36  O   -0.437813
    37  H   -0.025814
    38  H   -0.024399
    39  H   -0.006598
    40  H    0.083190
    41  H    0.079491
    42  H    0.055020
    43  H    0.058922
    44  H    0.028962
    45  H    0.039736
    46  H    0.011483
    47  H    0.021849
    48  H   -0.023491
    49  H    0.021705
    50  H    0.029117
    51  H    0.047351
    52  H    0.046938
    53  H    0.080498
    54  H    0.078222
    55  H   -0.010698
    56  H    0.005667
    57  H   -0.014756
    58  H    0.190650
 Sum of Mulliken atomic charges =   0.00000

 Dipole moment (field-independent basis, Debye):
    X=             23.5904    Y=             16.1467    Z=              2.9206  Tot=             28.7359
 Quadrupole moment (field-independent basis, Debye-Ang):
   XX=           -449.3986   YY=           -225.1356   ZZ=           -222.9206
   XY=            -71.0600   XZ=             -1.0137   YZ=             -3.3260

 Normal termination of Gaussian 09 at Wed Mar 18 07:52:27 2015.
