 Gaussian 09, Revision B.01,
 Gaussian 09:  EM64L-G09RevB.01 12-Aug-2010

 ------------------------------------------------------
 # opt=modredundant B3LYP/cc-pVDZ Geom=PrintInputOrient
 ------------------------------------------------------

 -------------------------------
 CY3 Dihedral Scan at MP2/6-31G*
 -------------------------------
 Symbolic Z-matrix:
 Charge =  0 Multiplicity = 1

 SCF Done:  E(RB3LYP) =  -2398.26711824     A.U. after   22 cycles
 SCF Done:  E(RB3LYP) =  -2398.26712607     A.U. after    8 cycles
 Optimization completed.
    -- Stationary point found.
 SCF Done:  E(RB3LYP) =  -2398.25641969     A.U. after   14 cycles
 SCF Done:  E(RB3LYP) =  -2398.26395471     A.U. after   13 cycles
 SCF Done:  E(RB3LYP) =  -2398.26512006     A.U. after   13 cycles
 SCF Done:  E(RB3LYP) =  -2398.26517394     A.U. after   11 cycles
 SCF Done:  E(RB3LYP) =  -2398.26518319     A.U. after    9 cycles
 SCF Done:  E(RB3LYP) =  -2398.26518608     A.U. after    9 cycles
 SCF Done:  E(RB3LYP) =  -2398.26518707     A.U. after    8 cycles
 SCF Done:  E(RB3LYP) =  -2398.26518742     A.U. after    8 cycles
 SCF Done:  E(RB3LYP) =  -2398.26518768     A.U. after    7 cycles
 SCF Done:  E(RB3LYP) =  -2398.26518770     A.U. after    7 cycles
 Optimization completed.
    -- Stationary point found.
 SCF Done:  E(RB3LYP) =  -2398.25180650     A.U. after   14 cycles
 SCF Done:  E(RB3LYP) =  -2398.25937744     A.U. after   13 cycles
 SCF Done:  E(RB3LYP) =  -2398.26030701     A.U. after   12 cycles
 SCF Done:  E(RB3LYP) =  -2398.26036267     A.U. after   12 cycles
 SCF Done:  E(RB3LYP) =  -2398.26036958     A.U. after   11 cycles
 SCF Done:  E(RB3LYP) =  -2398.26037135     A.U. after   11 cycles
 SCF Done:  E(RB3LYP) =  -2398.26037212     A.U. after    8 cycles
 SCF Done:  E(RB3LYP) =  -2398.26037230     A.U. after    8 cycles
 Optimization completed.
    -- Stationary point found.

                         Standard orientation:
 ---------------------------------------------------------------------
 Center     Atomic      Atomic             Coordinates (Angstroms)
 Number     Number       Type             X           Y           Z
 ---------------------------------------------------------------------
      1          6           0       -6.098099    1.180349    0.372443
      2          6           0       -4.768443    0.769896    0.255750
      3          6           0       -4.401551   -0.559079   -0.023501
      4          6           0       -5.380524   -1.522762   -0.197984
      5          6           0       -6.724948   -1.136043   -0.067227
      6          6           0       -7.075232    0.197030    0.202865
      7          6           0       -2.894285   -0.620723   -0.097761
      8          6           0       -2.484112    0.803418    0.193417
      9          7           0       -3.586990    1.543315    0.365566
     10          6           0       -3.583084    2.995935    0.601085
     11          6           0       -2.247033    3.626894    0.201708
     12          6           0       -1.101772    2.793632    0.790576
     13          6           0       -1.184397    1.365577    0.277318
     14          8           0        0.183186    3.386496    0.649700
     15          6           0        0.956767    2.915672   -0.469904
     16          6           0        1.170188    1.423945   -0.267620
     17          6           0       -0.030691    0.688409   -0.056863
     18          6           0        2.253294    3.740635   -0.475849
     19          6           0        3.533207    2.988994   -0.873395
     20          7           0        3.565969    1.615703   -0.393346
     21          6           0        2.425358    0.874678   -0.202914
     22          6           0        2.828524   -0.554515    0.109093
     23          6           0        4.334654   -0.505969   -0.008784
     24          6           0        4.712732    0.816406   -0.319649
     25          6           0        6.044686    1.181408   -0.521449
     26          6           0        7.017852    0.184364   -0.385701
     27          6           0        6.640254   -1.118476   -0.056576
     28          6           0        5.297060   -1.490762    0.124143
     29         16           0       -8.039323   -2.417444   -0.220012
     30         16           0        7.907173   -2.373972    0.094007
     31          8           0       -8.174259   -2.861311    1.206892
     32          8           0       -9.204436   -1.650959   -0.766407
     33          8           0       -7.419594   -3.423268   -1.143600
     34          8           0        9.143278   -1.884139   -0.537810
     35          8           0        8.110613   -2.338196    1.748256
     36          8           0        7.341501   -3.702628   -0.226426
     37          1           0       -6.371877    2.215454    0.585591
     38          1           0       -5.162737   -2.563647   -0.445845
     39          1           0       -8.137750    0.439745    0.260019
     40          1           0       -2.530277   -0.939979   -1.088465
     41          1           0       -2.452025   -1.309287    0.642098
     42          1           0       -3.802878    3.164483    1.668828
     43          1           0       -4.413338    3.424812    0.023331
     44          1           0       -2.206969    4.655583    0.588141
     45          1           0       -2.158958    3.673173   -0.896102
     46          1           0       -1.251010    2.751243    1.885993
     47          1           0        0.385781    3.069443   -1.404832
     48          1           0       -0.050022   -0.395087   -0.210023
     49          1           0        2.368367    4.105046    0.557666
     50          1           0        2.152571    4.626210   -1.118017
     51          1           0        4.404502    3.523538   -0.469194
     52          1           0        3.649841    2.969360   -1.973936
     53          1           0        2.368435   -1.264054   -0.599317
     54          1           0        2.496418   -0.848701    1.117891
     55          1           0        6.332185    2.198927   -0.786955
     56          1           0        8.072487    0.409847   -0.545002
     57          1           0        5.041267   -2.527701    0.345973
     58          1           0        8.242787   -3.270327    2.008523
 ---------------------------------------------------------------------

 The electronic state is 1-A.
 Alpha  occ. eigenvalues --  -89.14893 -89.01815 -19.21068 -19.19655 -19.16616
 Alpha  occ. eigenvalues --  -19.16520 -19.02873 -19.02856 -19.02787 -14.46099
 Alpha  occ. eigenvalues --  -14.44397 -10.31072 -10.30549 -10.29943 -10.29921
 Alpha  occ. eigenvalues --  -10.29407 -10.29395 -10.29358 -10.26874 -10.26471
 Alpha  occ. eigenvalues --  -10.26412 -10.25843 -10.25705 -10.25530 -10.25515
 Alpha  occ. eigenvalues --  -10.25418 -10.25412 -10.25275 -10.25045 -10.24937
 Alpha  occ. eigenvalues --  -10.24333 -10.22286 -10.21563 -10.19689 -10.19451
 Alpha  occ. eigenvalues --  -10.19003  -8.18055  -8.04650  -6.14479  -6.14323
 Alpha  occ. eigenvalues --   -6.14183  -6.00981  -6.00953  -6.00944  -1.15726
 Alpha  occ. eigenvalues --   -1.09371  -1.06249  -1.05937  -1.05214  -1.03013
 Alpha  occ. eigenvalues --   -1.01717  -0.92373  -0.89667  -0.88977  -0.88458
 Alpha  occ. eigenvalues --   -0.88189  -0.87439  -0.86698  -0.85242  -0.82414
 Alpha  occ. eigenvalues --   -0.81533  -0.80091  -0.77625  -0.77042  -0.75064
 Alpha  occ. eigenvalues --   -0.74242  -0.73408  -0.71252  -0.68540  -0.67983
 Alpha  occ. eigenvalues --   -0.66437  -0.65332  -0.64630  -0.62477  -0.61726
 Alpha  occ. eigenvalues --   -0.59736  -0.58687  -0.57957  -0.57367  -0.56998
 Alpha  occ. eigenvalues --   -0.55808  -0.55148  -0.54543  -0.54163  -0.53194
 Alpha  occ. eigenvalues --   -0.52592  -0.52419  -0.51269  -0.50755  -0.50112
 Alpha  occ. eigenvalues --   -0.49764  -0.49316  -0.48777  -0.48388  -0.47821
 Alpha  occ. eigenvalues --   -0.47675  -0.46650  -0.46148  -0.45917  -0.45680
 Alpha  occ. eigenvalues --   -0.45120  -0.44723  -0.44492  -0.44199  -0.44052
 Alpha  occ. eigenvalues --   -0.43479  -0.42641  -0.42330  -0.41647  -0.40674
 Alpha  occ. eigenvalues --   -0.40149  -0.39895  -0.39055  -0.38700  -0.38418
 Alpha  occ. eigenvalues --   -0.37971  -0.36861  -0.36409  -0.36160  -0.35959
 Alpha  occ. eigenvalues --   -0.34851  -0.34736  -0.34077  -0.33946  -0.32027
 Alpha  occ. eigenvalues --   -0.31676  -0.31280  -0.30474  -0.27064  -0.26782
 Alpha  occ. eigenvalues --   -0.24016  -0.23746  -0.23591  -0.20949  -0.20707
 Alpha  occ. eigenvalues --   -0.19758  -0.16580
 Alpha virt. eigenvalues --   -0.13672  -0.07469  -0.07101  -0.04697  -0.02196
 Alpha virt. eigenvalues --   -0.00643   0.00039   0.00238   0.00696   0.01115
 Alpha virt. eigenvalues --    0.01882   0.02813   0.03799   0.04046   0.04815

 Mulliken atomic charges:
              1
     1  C   -0.008870
     2  C    0.222575
     3  C   -0.131435
     4  C    0.043605
     5  C   -0.243069
     6  C    0.110599
     7  C    0.180117
     8  C    0.081607
     9  N   -0.263477
    10  C    0.088050
    11  C    0.049669
    12  C    0.154759
    13  C   -0.118247
    14  O   -0.315808
    15  C    0.117526
    16  C   -0.108276
    17  C    0.012764
    18  C    0.036972
    19  C    0.095272
    20  N   -0.306725
    21  C    0.079046
    22  C    0.184265
    23  C   -0.154685
    24  C    0.265261
    25  C   -0.009981
    26  C    0.107961
    27  C   -0.251725
    28  C    0.049722
    29  S    0.986602
    30  S    0.994322
    31  O   -0.516823
    32  O   -0.520065
    33  O   -0.524606
    34  O   -0.411057
    35  O   -0.324992
    36  O   -0.438208
    37  H   -0.027504
    38  H   -0.024291
    39  H   -0.005985
    40  H    0.082775
    41  H    0.081255
    42  H    0.058579
    43  H    0.061359
    44  H    0.031229
    45  H    0.024566
    46  H    0.024017
    47  H    0.012279
    48  H   -0.020425
    49  H    0.042740
    50  H    0.030354
    51  H    0.047939
    52  H    0.042897
    53  H    0.078399
    54  H    0.078934
    55  H   -0.011332
    56  H    0.004887
    57  H   -0.015529
    58  H    0.190215
 Sum of Mulliken atomic charges =   0.00000

 Dipole moment (field-independent basis, Debye):
    X=             22.8447    Y=             16.3033    Z=              1.6291  Tot=             28.1129
 Quadrupole moment (field-independent basis, Debye-Ang):
   XX=           -451.1694   YY=           -223.9997   ZZ=           -223.4200
   XY=            -73.5880   XZ=             -1.4036   YZ=            -12.9497

 Normal termination of Gaussian 09 at Thu Mar 19 13:31:50 2015.
