 Gaussian 09, Revision B.01,
 Gaussian 09:  EM64L-G09RevB.01 12-Aug-2010

 ------------------------------------------------------
 # opt=modredundant B3LYP/cc-pVDZ Geom=PrintInputOrient
 ------------------------------------------------------

 -------------------------------
 CY3 Dihedral Scan at MP2/6-31G*
 -------------------------------
 Symbolic Z-matrix:
 Charge =  0 Multiplicity = 1

 SCF Done:  E(RB3LYP) =  -2398.26711824     A.U. after   22 cycles
 SCF Done:  E(RB3LYP) =  -2398.26712607     A.U. after    8 cycles
 Optimization completed.
    -- Stationary point found.
 SCF Done:  E(RB3LYP) =  -2398.25892171     A.U. after   14 cycles
 SCF Done:  E(RB3LYP) =  -2398.26453731     A.U. after   13 cycles
 SCF Done:  E(RB3LYP) =  -2398.26514826     A.U. after   12 cycles
 SCF Done:  E(RB3LYP) =  -2398.26527935     A.U. after   11 cycles
 SCF Done:  E(RB3LYP) =  -2398.26533698     A.U. after   11 cycles
 SCF Done:  E(RB3LYP) =  -2398.26538134     A.U. after   12 cycles
 SCF Done:  E(RB3LYP) =  -2398.26541545     A.U. after   12 cycles
 SCF Done:  E(RB3LYP) =  -2398.26543922     A.U. after   13 cycles
 Optimization completed.
    -- Stationary point found.
 SCF Done:  E(RB3LYP) =  -2398.26636486     A.U. after   10 cycles
 SCF Done:  E(RB3LYP) =  -2398.26636514     A.U. after    8 cycles
 SCF Done:  E(RB3LYP) =  -2398.26636521     A.U. after    7 cycles
 SCF Done:  E(RB3LYP) =  -2398.26636527     A.U. after    7 cycles
 SCF Done:  E(RB3LYP) =  -2398.26636535     A.U. after    7 cycles
 SCF Done:  E(RB3LYP) =  -2398.26636550     A.U. after    8 cycles
 SCF Done:  E(RB3LYP) =  -2398.26636578     A.U. after   10 cycles
 SCF Done:  E(RB3LYP) =  -2398.26636595     A.U. after    8 cycles
 SCF Done:  E(RB3LYP) =  -2398.26636599     A.U. after    7 cycles
 SCF Done:  E(RB3LYP) =  -2398.26636600     A.U. after    6 cycles
 Optimization completed.
    -- Stationary point found.

                         Standard orientation:
 ---------------------------------------------------------------------
 Center     Atomic      Atomic             Coordinates (Angstroms)
 Number     Number       Type             X           Y           Z
 ---------------------------------------------------------------------
      1          6           0       -6.056939    1.096792    0.553431
      2          6           0       -4.736911    0.780526    0.225477
      3          6           0       -4.344625   -0.500205   -0.205427
      4          6           0       -5.286515   -1.508584   -0.319470
      5          6           0       -6.617544   -1.217904    0.024345
      6          6           0       -6.995736    0.068780    0.441333
      7          6           0       -2.859584   -0.465652   -0.480239
      8          6           0       -2.484885    0.955645   -0.130145
      9          7           0       -3.592091    1.611880    0.242557
     10          6           0       -3.591874    3.018184    0.660673
     11          6           0       -2.405401    3.762750    0.054827
     12          6           0       -1.097193    3.016080    0.304990
     13          6           0       -1.210080    1.568245   -0.137279
     14          8           0       -0.081903    3.723219   -0.403660
     15          6           0        1.193205    3.109194   -0.559497
     16          6           0        1.192859    1.594217   -0.437801
     17          6           0       -0.040552    0.896677   -0.427683
     18          6           0        2.262831    3.707870    0.363104
     19          6           0        3.635861    3.149549   -0.023349
     20          7           0        3.586519    1.690855   -0.166368
     21          6           0        2.418064    0.976296   -0.307330
     22          6           0        2.755015   -0.503141   -0.277764
     23          6           0        4.262055   -0.497194   -0.158186
     24          6           0        4.697317    0.841865   -0.094594
     25          6           0        6.046714    1.182892    0.008584
     26          6           0        6.976987    0.137937    0.056742
     27          6           0        6.540026   -1.187018    0.009377
     28          6           0        5.182071   -1.529437   -0.108931
     29         16           0       -7.867516   -2.568757   -0.033315
     30         16           0        7.756660   -2.500243    0.051363
     31          8           0       -7.764534   -3.112043    1.361869
     32          8           0       -9.141829   -1.846880   -0.347404
     33          8           0       -7.337788   -3.471214   -1.107469
     34          8           0        9.076849   -1.936550   -0.273828
     35          8           0        7.717282   -2.840592    1.682574
     36          8           0        7.227732   -3.698214   -0.636203
     37          1           0       -6.352536    2.095076    0.881951
     38          1           0       -5.050752   -2.514689   -0.672250
     39          1           0       -8.050802    0.239997    0.661845
     40          1           0       -2.615287   -0.684964   -1.533099
     41          1           0       -2.291435   -1.182888    0.135763
     42          1           0       -3.575982    3.047679    1.763932
     43          1           0       -4.539536    3.465944    0.333003
     44          1           0       -2.353207    4.775499    0.479066
     45          1           0       -2.537616    3.863566   -1.034402
     46          1           0       -0.867352    3.029651    1.391625
     47          1           0        1.477308    3.355317   -1.600310
     48          1           0       -0.054039   -0.182714   -0.603490
     49          1           0        2.031041    3.465202    1.413051
     50          1           0        2.278915    4.802807    0.263752
     51          1           0        4.382644    3.393338    0.747319
     52          1           0        3.985829    3.591035   -0.973247
     53          1           0        2.403828   -1.007511   -1.193176
     54          1           0        2.272387   -1.010797    0.573600
     55          1           0        6.380544    2.220478    0.035368
     56          1           0        8.045386    0.345505    0.119291
     57          1           0        4.884715   -2.577120   -0.171033
     58          1           0        7.781177   -3.813521    1.741195
 ---------------------------------------------------------------------

 The electronic state is 1-A.
 Alpha  occ. eigenvalues --  -89.15033 -89.01725 -19.21197 -19.19675 -19.16761
 Alpha  occ. eigenvalues --  -19.16653 -19.02786 -19.02769 -19.02702 -14.45692
 Alpha  occ. eigenvalues --  -14.44801 -10.30885 -10.30758 -10.29996 -10.29965
 Alpha  occ. eigenvalues --  -10.29691 -10.29570 -10.29094 -10.27128 -10.26660
 Alpha  occ. eigenvalues --  -10.26485 -10.26063 -10.25887 -10.25694 -10.25479
 Alpha  occ. eigenvalues --  -10.25393 -10.25223 -10.25101 -10.25003 -10.24866
 Alpha  occ. eigenvalues --  -10.24742 -10.22108 -10.21399 -10.19555 -10.19314
 Alpha  occ. eigenvalues --  -10.18871  -8.18195  -8.04560  -6.14619  -6.14463
 Alpha  occ. eigenvalues --   -6.14324  -6.00891  -6.00864  -6.00855  -1.15871
 Alpha  occ. eigenvalues --   -1.09430  -1.06122  -1.05989  -1.05348  -1.03164
 Alpha  occ. eigenvalues --   -1.01624  -0.92639  -0.89648  -0.89055  -0.88370
 Alpha  occ. eigenvalues --   -0.88092  -0.87799  -0.86814  -0.85140  -0.82559
 Alpha  occ. eigenvalues --   -0.81609  -0.80053  -0.77563  -0.77202  -0.74881
 Alpha  occ. eigenvalues --   -0.74481  -0.73274  -0.71359  -0.68427  -0.68019
 Alpha  occ. eigenvalues --   -0.66359  -0.65346  -0.64743  -0.62663  -0.61686
 Alpha  occ. eigenvalues --   -0.59690  -0.58721  -0.57984  -0.57622  -0.57239
 Alpha  occ. eigenvalues --   -0.56011  -0.55073  -0.54613  -0.54192  -0.53291
 Alpha  occ. eigenvalues --   -0.52696  -0.52131  -0.51374  -0.50942  -0.50351
 Alpha  occ. eigenvalues --   -0.49613  -0.49210  -0.48833  -0.48194  -0.47890
 Alpha  occ. eigenvalues --   -0.47687  -0.46888  -0.46710  -0.45858  -0.45557
 Alpha  occ. eigenvalues --   -0.45095  -0.44960  -0.44441  -0.44039  -0.43892
 Alpha  occ. eigenvalues --   -0.43796  -0.42846  -0.42269  -0.41462  -0.40757
 Alpha  occ. eigenvalues --   -0.39993  -0.39957  -0.39435  -0.38945  -0.38336
 Alpha  occ. eigenvalues --   -0.38112  -0.36573  -0.36309  -0.36246  -0.35756
 Alpha  occ. eigenvalues --   -0.35190  -0.34706  -0.34235  -0.34117  -0.32157
 Alpha  occ. eigenvalues --   -0.31473  -0.31211  -0.30724  -0.27180  -0.26670
 Alpha  occ. eigenvalues --   -0.23927  -0.23661  -0.23477  -0.20858  -0.20614
 Alpha  occ. eigenvalues --   -0.19633  -0.16495
 Alpha virt. eigenvalues --   -0.13718  -0.07508  -0.07271  -0.04532  -0.02064
 Alpha virt. eigenvalues --   -0.00502  -0.00004   0.00275   0.00834   0.00959
 Alpha virt. eigenvalues --    0.02101   0.02888   0.03578   0.04087   0.04758

 Mulliken atomic charges:
              1
     1  C   -0.009154
     2  C    0.222504
     3  C   -0.132613
     4  C    0.043548
     5  C   -0.243229
     6  C    0.111088
     7  C    0.181398
     8  C    0.087255
     9  N   -0.265481
    10  C    0.094809
    11  C    0.036301
    12  C    0.133805
    13  C   -0.083705
    14  O   -0.320561
    15  C    0.160872
    16  C   -0.141852
    17  C    0.009131
    18  C    0.046461
    19  C    0.090952
    20  N   -0.316265
    21  C    0.079962
    22  C    0.183078
    23  C   -0.152627
    24  C    0.267000
    25  C   -0.009044
    26  C    0.108525
    27  C   -0.251619
    28  C    0.050520
    29  S    0.986339
    30  S    0.995174
    31  O   -0.517798
    32  O   -0.519935
    33  O   -0.524665
    34  O   -0.410273
    35  O   -0.324930
    36  O   -0.437742
    37  H   -0.027359
    38  H   -0.025103
    39  H   -0.006498
    40  H    0.083392
    41  H    0.078365
    42  H    0.056487
    43  H    0.061023
    44  H    0.028437
    45  H    0.035519
    46  H    0.013598
    47  H    0.023478
    48  H   -0.023843
    49  H    0.022106
    50  H    0.029094
    51  H    0.047508
    52  H    0.046693
    53  H    0.080547
    54  H    0.078203
    55  H   -0.010794
    56  H    0.005645
    57  H   -0.014546
    58  H    0.190819
 Sum of Mulliken atomic charges =   0.00000

 Dipole moment (field-independent basis, Debye):
    X=             23.0192    Y=             16.7271    Z=              2.1041  Tot=             28.5325
 Quadrupole moment (field-independent basis, Debye-Ang):
   XX=           -441.7311   YY=           -225.1867   ZZ=           -225.1650
   XY=            -75.4284   XZ=              6.5297   YZ=             -1.6000

 Normal termination of Gaussian 09 at Thu Mar 19 10:45:07 2015.
