 Gaussian 09, Revision B.01,
 Gaussian 09:  EM64L-G09RevB.01 12-Aug-2010

 ------------------------------------------------------
 # opt=modredundant B3LYP/cc-pVDZ Geom=PrintInputOrient
 ------------------------------------------------------

 -------------------------------
 CY3 Dihedral Scan at MP2/6-31G*
 -------------------------------
 Symbolic Z-matrix:
 Charge =  0 Multiplicity = 1

 SCF Done:  E(RB3LYP) =  -2398.26711824     A.U. after   22 cycles
 SCF Done:  E(RB3LYP) =  -2398.26712594     A.U. after    9 cycles
 Optimization completed.
    -- Stationary point found.
 SCF Done:  E(RB3LYP) =  -2398.26432817     A.U. after   13 cycles
 SCF Done:  E(RB3LYP) =  -2398.26308873     A.U. after   13 cycles
 SCF Done:  E(RB3LYP) =  -2398.26451184     A.U. after   13 cycles
 SCF Done:  E(RB3LYP) =  -2398.26452382     A.U. after   11 cycles
 SCF Done:  E(RB3LYP) =  -2398.26452542     A.U. after    9 cycles
 SCF Done:  E(RB3LYP) =  -2398.26452605     A.U. after    8 cycles
 Optimization completed.
    -- Stationary point found.
 SCF Done:  E(RB3LYP) =  -2398.25572220     A.U. after   14 cycles
 SCF Done:  E(RB3LYP) =  -2398.25576834     A.U. after    8 cycles
 SCF Done:  E(RB3LYP) =  -2398.25628873     A.U. after   13 cycles
 SCF Done:  E(RB3LYP) =  -2398.25630139     A.U. after   11 cycles
 SCF Done:  E(RB3LYP) =  -2398.25630272     A.U. after    8 cycles
 SCF Done:  E(RB3LYP) =  -2398.25630280     A.U. after    7 cycles
 Optimization completed.
    -- Stationary point found.

                         Standard orientation:
 ---------------------------------------------------------------------
 Center     Atomic      Atomic             Coordinates (Angstroms)
 Number     Number       Type             X           Y           Z
 ---------------------------------------------------------------------
      1          6           0       -6.105186    1.154253   -0.324691
      2          6           0       -4.773410    0.780116   -0.115331
      3          6           0       -4.351184   -0.566473   -0.099944
      4          6           0       -5.290439   -1.555409   -0.347576
      5          6           0       -6.636988   -1.203506   -0.140505
      6          6           0       -7.049447    0.121303   -0.364798
      7          6           0       -2.845101   -0.580901    0.003603
      8          6           0       -2.502447    0.885921    0.126373
      9          7           0       -3.629924    1.602658    0.021797
     10          6           0       -3.679088    3.073014    0.023358
     11          6           0       -2.301660    3.680106   -0.250521
     12          6           0       -1.259901    2.983124    0.633516
     13          6           0       -1.238537    1.499425    0.321647
     14          8           0        0.011683    3.619264    0.616353
     15          6           0        1.049413    3.026570   -0.165421
     16          6           0        1.174451    1.536240    0.094878
     17          6           0       -0.042874    0.819969    0.216781
     18          6           0        2.337548    3.760292    0.203098
     19          6           0        3.558887    3.100014   -0.434860
     20          7           0        3.571157    1.667561   -0.143685
     21          6           0        2.419393    0.949766    0.086814
     22          6           0        2.798270   -0.504703    0.294854
     23          6           0        4.296596   -0.489771    0.092476
     24          6           0        4.695836    0.836665   -0.171715
     25          6           0        6.025106    1.176695   -0.428042
     26          6           0        6.974320    0.148415   -0.399347
     27          6           0        6.577042   -1.159876   -0.118144
     28          6           0        5.235488   -1.505442    0.119509
     29         16           0       -7.889382   -2.540347    0.039860
     30         16           0        7.813514   -2.454130   -0.106395
     31          8           0       -7.945815   -2.659925    1.534186
     32          8           0       -9.114590   -1.969018   -0.605928
     33          8           0       -7.253782   -3.700196   -0.668488
     34          8           0        9.027311   -1.960707   -0.777493
     35          8           0        8.105640   -2.516881    1.533668
     36          8           0        7.194112   -3.747844   -0.467576
     37          1           0       -6.404561    2.198132   -0.436995
     38          1           0       -5.043606   -2.617012   -0.426726
     39          1           0       -8.118657    0.319680   -0.455171
     40          1           0       -2.367115   -1.024293   -0.886207
     41          1           0       -2.474680   -1.140195    0.878795
     42          1           0       -4.072749    3.395036    1.002136
     43          1           0       -4.406987    3.380269   -0.740185
     44          1           0       -2.332267    4.755723   -0.024013
     45          1           0       -2.034327    3.564308   -1.313709
     46          1           0       -1.594603    3.088432    1.683307
     47          1           0        0.827422    3.177895   -1.242647
     48          1           0       -0.040827   -0.271774    0.150174
     49          1           0        2.430707    3.746510    1.300782
     50          1           0        2.281268    4.811544   -0.113367
     51          1           0        4.481394    3.544831   -0.035157
     52          1           0        3.567784    3.246011   -1.530773
     53          1           0        2.280469   -1.160468   -0.425024
     54          1           0        2.515146   -0.849335    1.302926
     55          1           0        6.327029    2.199111   -0.656471
     56          1           0        8.024906    0.354000   -0.605454
     57          1           0        4.962025   -2.545372    0.302996
     58          1           0        8.224463   -3.465330    1.734706
 ---------------------------------------------------------------------

 The electronic state is 1-A.
 Alpha  occ. eigenvalues --  -89.14902 -89.01885 -19.21075 -19.19644 -19.16623
 Alpha  occ. eigenvalues --  -19.16529 -19.03037 -19.03000 -19.02803 -14.45925
 Alpha  occ. eigenvalues --  -14.44519 -10.30874 -10.30678 -10.29925 -10.29877
 Alpha  occ. eigenvalues --  -10.29493 -10.29446 -10.29201 -10.26952 -10.26488
 Alpha  occ. eigenvalues --  -10.26390 -10.25888 -10.25740 -10.25541 -10.25395
 Alpha  occ. eigenvalues --  -10.25358 -10.25355 -10.25305 -10.24876 -10.24827
 Alpha  occ. eigenvalues --  -10.24492 -10.22275 -10.21455 -10.19743 -10.19467
 Alpha  occ. eigenvalues --  -10.19146  -8.18065  -8.04724  -6.14488  -6.14332
 Alpha  occ. eigenvalues --   -6.14193  -6.01054  -6.01030  -6.01016  -1.15735
 Alpha  occ. eigenvalues --   -1.09410  -1.06081  -1.05950  -1.05223  -1.03022
 Alpha  occ. eigenvalues --   -1.01801  -0.92479  -0.89683  -0.88985  -0.88565
 Alpha  occ. eigenvalues --   -0.88266  -0.87683  -0.86775  -0.85243  -0.82451
 Alpha  occ. eigenvalues --   -0.81530  -0.80033  -0.77598  -0.77041  -0.74952
 Alpha  occ. eigenvalues --   -0.74340  -0.73278  -0.71257  -0.68451  -0.67953
 Alpha  occ. eigenvalues --   -0.66402  -0.65213  -0.64620  -0.62440  -0.61532
 Alpha  occ. eigenvalues --   -0.59866  -0.58638  -0.57958  -0.57633  -0.57040
 Alpha  occ. eigenvalues --   -0.55857  -0.55044  -0.54516  -0.54177  -0.53202
 Alpha  occ. eigenvalues --   -0.52499  -0.52402  -0.51300  -0.50796  -0.50083
 Alpha  occ. eigenvalues --   -0.49680  -0.49175  -0.48669  -0.48332  -0.47727
 Alpha  occ. eigenvalues --   -0.47697  -0.46697  -0.46303  -0.45873  -0.45718
 Alpha  occ. eigenvalues --   -0.45096  -0.44730  -0.44508  -0.44193  -0.43888
 Alpha  occ. eigenvalues --   -0.43247  -0.42985  -0.42378  -0.41546  -0.40605
 Alpha  occ. eigenvalues --   -0.40085  -0.39925  -0.39327  -0.38930  -0.38625
 Alpha  occ. eigenvalues --   -0.37903  -0.36746  -0.36616  -0.36157  -0.35939
 Alpha  occ. eigenvalues --   -0.34949  -0.34594  -0.34090  -0.34054  -0.32018
 Alpha  occ. eigenvalues --   -0.31343  -0.31289  -0.30545  -0.26958  -0.26459
 Alpha  occ. eigenvalues --   -0.24012  -0.23806  -0.23610  -0.21049  -0.20643
 Alpha  occ. eigenvalues --   -0.19902  -0.16676
 Alpha virt. eigenvalues --   -0.13581  -0.07378  -0.07128  -0.04535  -0.02376
 Alpha virt. eigenvalues --   -0.00906   0.00039   0.00318   0.00887   0.01033
 Alpha virt. eigenvalues --    0.02062   0.03051   0.03962   0.04074   0.04850

 Mulliken atomic charges:
              1
     1  C   -0.019843
     2  C    0.222139
     3  C   -0.143975
     4  C    0.042562
     5  C   -0.248520
     6  C    0.107237
     7  C    0.170080
     8  C    0.082653
     9  N   -0.261263
    10  C    0.089577
    11  C    0.045543
    12  C    0.157697
    13  C   -0.118880
    14  O   -0.320083
    15  C    0.129335
    16  C   -0.097799
    17  C    0.009115
    18  C    0.038870
    19  C    0.095804
    20  N   -0.314466
    21  C    0.081569
    22  C    0.186764
    23  C   -0.156100
    24  C    0.268543
    25  C   -0.010524
    26  C    0.108619
    27  C   -0.251983
    28  C    0.050744
    29  S    0.990829
    30  S    0.994404
    31  O   -0.517763
    32  O   -0.516380
    33  O   -0.521230
    34  O   -0.411105
    35  O   -0.325025
    36  O   -0.438029
    37  H   -0.027714
    38  H   -0.004022
    39  H    0.005787
    40  H    0.080351
    41  H    0.080187
    42  H    0.059394
    43  H    0.060611
    44  H    0.031259
    45  H    0.023685
    46  H    0.027159
    47  H    0.011124
    48  H   -0.026482
    49  H    0.032503
    50  H    0.026318
    51  H    0.047960
    52  H    0.045090
    53  H    0.078497
    54  H    0.080175
    55  H   -0.011045
    56  H    0.005074
    57  H   -0.015359
    58  H    0.190331
 Sum of Mulliken atomic charges =   0.00000

 Dipole moment (field-independent basis, Debye):
    X=             22.4950    Y=             16.7338    Z=              0.3473  Tot=             28.0387
 Quadrupole moment (field-independent basis, Debye-Ang):
   XX=           -436.8671   YY=           -225.9125   ZZ=           -225.7247
   XY=            -75.6654   XZ=             16.6018   YZ=            -12.0487

 Normal termination of Gaussian 09 at Tue Mar 17 14:17:02 2015.
