 Gaussian 09, Revision B.01,
 Gaussian 09:  EM64L-G09RevB.01 12-Aug-2010

 ------------------------------------------------------
 # opt=modredundant B3LYP/cc-pVDZ Geom=PrintInputOrient
 ------------------------------------------------------

 -------------------------------
 CY3 Dihedral Scan at MP2/6-31G*
 -------------------------------
 Symbolic Z-matrix:
 Charge =  0 Multiplicity = 1

 SCF Done:  E(RB3LYP) =  -2398.26711824     A.U. after   22 cycles
 SCF Done:  E(RB3LYP) =  -2398.26712607     A.U. after    8 cycles
 Optimization completed.
    -- Stationary point found.
 SCF Done:  E(RB3LYP) =  -2398.25791054     A.U. after   13 cycles
 SCF Done:  E(RB3LYP) =  -2398.26338269     A.U. after   13 cycles
 SCF Done:  E(RB3LYP) =  -2398.26430982     A.U. after   12 cycles
 SCF Done:  E(RB3LYP) =  -2398.26437781     A.U. after   12 cycles
 SCF Done:  E(RB3LYP) =  -2398.26439349     A.U. after   11 cycles
 SCF Done:  E(RB3LYP) =  -2398.26440443     A.U. after   11 cycles
 SCF Done:  E(RB3LYP) =  -2398.26441129     A.U. after   11 cycles
 SCF Done:  E(RB3LYP) =  -2398.26441444     A.U. after   11 cycles
 Optimization completed.
    -- Stationary point found.
 SCF Done:  E(RB3LYP) =  -2398.25527411     A.U. after   13 cycles
 SCF Done:  E(RB3LYP) =  -2398.25527129     A.U. after   11 cycles
 SCF Done:  E(RB3LYP) =  -2398.25526655     A.U. after   13 cycles
 SCF Done:  E(RB3LYP) =  -2398.25527526     A.U. after   13 cycles
 SCF Done:  E(RB3LYP) =  -2398.25527013     A.U. after   12 cycles
 SCF Done:  E(RB3LYP) =  -2398.25527539     A.U. after   12 cycles
 SCF Done:  E(RB3LYP) =  -2398.25527529     A.U. after   11 cycles
 SCF Done:  E(RB3LYP) =  -2398.25527563     A.U. after   11 cycles
 SCF Done:  E(RB3LYP) =  -2398.25527577     A.U. after    8 cycles
 SCF Done:  E(RB3LYP) =  -2398.25527581     A.U. after    7 cycles
 Optimization completed.
    -- Stationary point found.

                         Standard orientation:
 ---------------------------------------------------------------------
 Center     Atomic      Atomic             Coordinates (Angstroms)
 Number     Number       Type             X           Y           Z
 ---------------------------------------------------------------------
      1          6           0       -6.043050    1.070937    0.774945
      2          6           0       -4.742114    0.747023    0.384382
      3          6           0       -4.402382   -0.490912   -0.198055
      4          6           0       -5.383246   -1.448018   -0.396138
      5          6           0       -6.695487   -1.151540    0.009659
      6          6           0       -7.019764    0.094254    0.573173
      7          6           0       -2.920234   -0.481201   -0.505062
      8          6           0       -2.485954    0.877611   -0.011081
      9          7           0       -3.569276    1.524756    0.453416
     10          6           0       -3.329044    2.815056    1.103670
     11          6           0       -2.431728    3.588297    0.135006
     12          6           0       -1.050064    2.981816    0.339867
     13          6           0       -1.192392    1.480223    0.001898
     14          8           0       -0.115931    3.623167   -0.516302
     15          6           0        1.157318    3.008949   -0.696007
     16          6           0        1.189134    1.512298   -0.423639
     17          6           0       -0.033397    0.800433   -0.310016
     18          6           0        2.272553    3.709307    0.090848
     19          6           0        3.628547    3.124828   -0.316440
     20          7           0        3.593218    1.659328   -0.296271
     21          6           0        2.428623    0.923945   -0.300022
     22          6           0        2.787742   -0.541893   -0.140692
     23          6           0        4.298847   -0.510862   -0.105924
     24          6           0        4.717838    0.831731   -0.200645
     25          6           0        6.066030    1.192760   -0.205617
     26          6           0        7.012056    0.165997   -0.104066
     27          6           0        6.592028   -1.160791    0.004362
     28          6           0        5.234610   -1.524959   -0.004825
     29         16           0       -7.993942   -2.445630   -0.160181
     30         16           0        7.827828   -2.451911    0.109753
     31          8           0       -7.935363   -3.085537    1.196151
     32          8           0       -9.234422   -1.654413   -0.440337
     33          8           0       -7.482300   -3.292640   -1.286914
     34          8           0        9.121928   -1.910748   -0.336731
     35          8           0        7.874563   -2.630392    1.766601
     36          8           0        7.282797   -3.716462   -0.430076
     37          1           0       -6.293311    2.038672    1.214417
     38          1           0       -5.193617   -2.418758   -0.858937
     39          1           0       -8.063205    0.277147    0.835383
     40          1           0       -2.704947   -0.595705   -1.580394
     41          1           0       -2.370309   -1.284286    0.015364
     42          1           0       -2.859790    2.654273    2.086225
     43          1           0       -4.295820    3.310437    1.258230
     44          1           0       -2.419693    4.659906    0.385171
     45          1           0       -2.772796    3.473972   -0.902269
     46          1           0       -0.738767    3.102188    1.395949
     47          1           0        1.368303    3.151274   -1.772679
     48          1           0       -0.043486   -0.286611   -0.435423
     49          1           0        2.107873    3.576212    1.172610
     50          1           0        2.266896    4.787874   -0.122768
     51          1           0        4.416018    3.459195    0.375715
     52          1           0        3.913790    3.462814   -1.328493
     53          1           0        2.394441   -1.139303   -0.980028
     54          1           0        2.358442   -0.964933    0.782407
     55          1           0        6.386614    2.230530   -0.300423
     56          1           0        8.079274    0.387925   -0.120619
     57          1           0        4.948955   -2.576077    0.054200
     58          1           0        7.976378   -3.590233    1.916568
 ---------------------------------------------------------------------

 The electronic state is 1-A.
 Alpha  occ. eigenvalues --  -89.15016 -89.01805 -19.21190 -19.19713 -19.16742
 Alpha  occ. eigenvalues --  -19.16637 -19.02880 -19.02849 -19.02800 -14.45506
 Alpha  occ. eigenvalues --  -14.44740 -10.30817 -10.30585 -10.30050 -10.29988
 Alpha  occ. eigenvalues --  -10.29664 -10.29546 -10.29024 -10.27086 -10.26632
 Alpha  occ. eigenvalues --  -10.26412 -10.26030 -10.25865 -10.25671 -10.25624
 Alpha  occ. eigenvalues --  -10.25447 -10.25276 -10.25238 -10.24999 -10.24809
 Alpha  occ. eigenvalues --  -10.24570 -10.22230 -10.21473 -10.19598 -10.19431
 Alpha  occ. eigenvalues --  -10.18971  -8.18179  -8.04642  -6.14602  -6.14446
 Alpha  occ. eigenvalues --   -6.14307  -6.00972  -6.00945  -6.00936  -1.15849
 Alpha  occ. eigenvalues --   -1.09508  -1.06171  -1.06045  -1.05335  -1.03141
 Alpha  occ. eigenvalues --   -1.01712  -0.92608  -0.89852  -0.89036  -0.88455
 Alpha  occ. eigenvalues --   -0.88180  -0.87780  -0.86487  -0.85116  -0.82519
 Alpha  occ. eigenvalues --   -0.81589  -0.79987  -0.77398  -0.77313  -0.74906
 Alpha  occ. eigenvalues --   -0.74151  -0.73178  -0.71216  -0.68379  -0.67908
 Alpha  occ. eigenvalues --   -0.66180  -0.65400  -0.64753  -0.62708  -0.61896
 Alpha  occ. eigenvalues --   -0.59989  -0.58737  -0.58246  -0.57660  -0.56955
 Alpha  occ. eigenvalues --   -0.56026  -0.55218  -0.54453  -0.54139  -0.53339
 Alpha  occ. eigenvalues --   -0.52421  -0.52053  -0.51487  -0.50914  -0.50309
 Alpha  occ. eigenvalues --   -0.49367  -0.48981  -0.48650  -0.48322  -0.47850
 Alpha  occ. eigenvalues --   -0.47279  -0.46886  -0.46605  -0.45895  -0.45709
 Alpha  occ. eigenvalues --   -0.45189  -0.44956  -0.44489  -0.44378  -0.43780
 Alpha  occ. eigenvalues --   -0.43673  -0.42866  -0.42188  -0.41487  -0.40694
 Alpha  occ. eigenvalues --   -0.40514  -0.39758  -0.39399  -0.38918  -0.38389
 Alpha  occ. eigenvalues --   -0.38032  -0.36598  -0.36391  -0.36253  -0.35614
 Alpha  occ. eigenvalues --   -0.35163  -0.34769  -0.34209  -0.34074  -0.32117
 Alpha  occ. eigenvalues --   -0.31446  -0.31318  -0.30691  -0.27134  -0.26737
 Alpha  occ. eigenvalues --   -0.23979  -0.23748  -0.23523  -0.20957  -0.20675
 Alpha  occ. eigenvalues --   -0.19693  -0.16577
 Alpha virt. eigenvalues --   -0.13771  -0.07555  -0.07245  -0.04724  -0.02121
 Alpha virt. eigenvalues --   -0.00616  -0.00025   0.00312   0.00950   0.01046
 Alpha virt. eigenvalues --    0.02312   0.02876   0.03363   0.03969   0.04727

 Mulliken atomic charges:
              1
     1  C   -0.002418
     2  C    0.216423
     3  C   -0.136039
     4  C    0.040001
     5  C   -0.242553
     6  C    0.115747
     7  C    0.186948
     8  C    0.070035
     9  N   -0.245907
    10  C    0.107893
    11  C    0.035926
    12  C    0.145677
    13  C   -0.101798
    14  O   -0.314519
    15  C    0.154975
    16  C   -0.144789
    17  C    0.015752
    18  C    0.047659
    19  C    0.091362
    20  N   -0.316447
    21  C    0.080356
    22  C    0.183387
    23  C   -0.153482
    24  C    0.267303
    25  C   -0.009286
    26  C    0.108537
    27  C   -0.251899
    28  C    0.050902
    29  S    0.986357
    30  S    0.994666
    31  O   -0.516749
    32  O   -0.519217
    33  O   -0.523786
    34  O   -0.410608
    35  O   -0.325124
    36  O   -0.437491
    37  H   -0.024648
    38  H   -0.023792
    39  H   -0.006241
    40  H    0.082690
    41  H    0.078558
    42  H    0.052693
    43  H    0.045109
    44  H    0.022763
    45  H    0.040258
    46  H    0.012696
    47  H    0.023319
    48  H   -0.024466
    49  H    0.021528
    50  H    0.029254
    51  H    0.047131
    52  H    0.046756
    53  H    0.080313
    54  H    0.077878
    55  H   -0.010873
    56  H    0.005499
    57  H   -0.014780
    58  H    0.190563
 Sum of Mulliken atomic charges =   0.00000

 Dipole moment (field-independent basis, Debye):
    X=             23.5316    Y=             16.0278    Z=              2.9495  Tot=             28.6239
 Quadrupole moment (field-independent basis, Debye-Ang):
   XX=           -449.0078   YY=           -225.6691   ZZ=           -222.8647
   XY=            -70.2195   XZ=             -0.4685   YZ=             -2.9558

 Normal termination of Gaussian 09 at Wed Mar 18 14:50:43 2015.
