 Gaussian 09, Revision B.01,
 Gaussian 09:  EM64L-G09RevB.01 12-Aug-2010

 ------------------------------------------------------
 # opt=modredundant B3LYP/cc-pVDZ Geom=PrintInputOrient
 ------------------------------------------------------

 -------------------------------
 CY3 Dihedral Scan at MP2/6-31G*
 -------------------------------
 Symbolic Z-matrix:
 Charge =  0 Multiplicity = 1

 SCF Done:  E(RB3LYP) =  -2398.26711824     A.U. after   22 cycles
 SCF Done:  E(RB3LYP) =  -2398.26712608     A.U. after    8 cycles
 Optimization completed.
    -- Stationary point found.
 SCF Done:  E(RB3LYP) =  -2398.25538611     A.U. after   17 cycles
 SCF Done:  E(RB3LYP) =  -2398.26127245     A.U. after   13 cycles
 SCF Done:  E(RB3LYP) =  -2398.26211971     A.U. after   12 cycles
 SCF Done:  E(RB3LYP) =  -2398.26222395     A.U. after   12 cycles
 SCF Done:  E(RB3LYP) =  -2398.26225246     A.U. after   11 cycles
 SCF Done:  E(RB3LYP) =  -2398.26226325     A.U. after    9 cycles
 SCF Done:  E(RB3LYP) =  -2398.26226670     A.U. after    8 cycles
 SCF Done:  E(RB3LYP) =  -2398.26226747     A.U. after    8 cycles
 Optimization completed.
    -- Stationary point found.
 SCF Done:  E(RB3LYP) =  -2398.24420294     A.U. after    9 cycles
 SCF Done:  E(RB3LYP) =  -2398.24420342     A.U. after    8 cycles
 SCF Done:  E(RB3LYP) =  -2398.24420353     A.U. after    7 cycles
 SCF Done:  E(RB3LYP) =  -2398.24420356     A.U. after    7 cycles
 SCF Done:  E(RB3LYP) =  -2398.24420360     A.U. after    7 cycles
 SCF Done:  E(RB3LYP) =  -2398.24420366     A.U. after    7 cycles
 SCF Done:  E(RB3LYP) =  -2398.24420372     A.U. after    7 cycles
 SCF Done:  E(RB3LYP) =  -2398.24420377     A.U. after    7 cycles
 SCF Done:  E(RB3LYP) =  -2398.24420378     A.U. after    7 cycles
 SCF Done:  E(RB3LYP) =  -2398.24420377     A.U. after    6 cycles
 Optimization completed.
    -- Stationary point found.

                         Standard orientation:
 ---------------------------------------------------------------------
 Center     Atomic      Atomic             Coordinates (Angstroms)
 Number     Number       Type             X           Y           Z
 ---------------------------------------------------------------------
      1          6           0       -6.111532    1.243015   -0.106360
      2          6           0       -4.796972    0.771859   -0.059337
      3          6           0       -4.482247   -0.599343   -0.015120
      4          6           0       -5.496679   -1.542118   -0.017019
      5          6           0       -6.826013   -1.088466   -0.039254
      6          6           0       -7.125149    0.283215   -0.095267
      7          6           0       -2.978645   -0.731117   -0.000168
      8          6           0       -2.505881    0.700035   -0.009609
      9          7           0       -3.594212    1.515466   -0.067249
     10          6           0       -3.544819    3.012901   -0.336936
     11          6           0       -2.117360    3.204641   -0.809742
     12          6           0       -1.323513    2.699794    0.420039
     13          6           0       -1.176730    1.237417    0.107793
     14          8           0       -0.087043    3.355632    0.677068
     15          6           0        1.050825    2.893108   -0.053568
     16          6           0        1.219893    1.382025    0.026774
     17          6           0        0.031633    0.601459    0.006797
     18          6           0        2.265017    3.607631    0.536426
     19          6           0        3.567969    3.089867   -0.071649
     20          7           0        3.620264    1.631445    0.005922
     21          6           0        2.486820    0.848331    0.041271
     22          6           0        2.916184   -0.607326    0.081695
     23          6           0        4.423542   -0.511121    0.009721
     24          6           0        4.780049    0.852469   -0.038048
     25          6           0        6.108586    1.270946   -0.130665
     26          6           0        7.099245    0.282617   -0.160851
     27          6           0        6.742260   -1.065262   -0.095342
     28          6           0        5.403375   -1.487062   -0.021397
     29         16           0       -8.190555   -2.321482    0.047917
     30         16           0        8.032217   -2.304037   -0.157945
     31          8           0       -8.371645   -2.440312    1.532872
     32          8           0       -9.311391   -1.648519   -0.683238
     33          8           0       -7.597188   -3.526483   -0.618547
     34          8           0        9.269391   -1.680328   -0.655717
     35          8           0        8.203436   -2.583638    1.476632
     36          8           0        7.501763   -3.556131   -0.740243
     37          1           0       -6.345414    2.308815   -0.147033
     38          1           0       -5.315820   -2.618934   -0.014019
     39          1           0       -8.177143    0.569703   -0.144584
     40          1           0       -2.589977   -1.273063   -0.880484
     41          1           0       -2.596646   -1.258888    0.889589
     42          1           0       -3.779375    3.562980    0.583931
     43          1           0       -4.312452    3.216104   -1.095766
     44          1           0       -1.918661    4.275449   -0.980454
     45          1           0       -1.903575    2.648577   -1.729679
     46          1           0       -1.898926    2.857247    1.341916
     47          1           0        0.937348    3.178224   -1.121027
     48          1           0        0.078066   -0.480822   -0.143267
     49          1           0        2.261225    3.437991    1.624992
     50          1           0        2.186632    4.691009    0.367339
     51          1           0        4.429616    3.499189    0.475324
     52          1           0        3.668395    3.400906   -1.127850
     53          1           0        2.488236   -1.174823   -0.761341
     54          1           0        2.572176   -1.098444    1.006772
     55          1           0        6.379722    2.325198   -0.191376
     56          1           0        8.152179    0.551560   -0.247136
     57          1           0        5.164627   -2.551303   -0.003690
     58          1           0        8.353080   -3.545622    1.555850
 ---------------------------------------------------------------------

 The electronic state is 1-A.
 Alpha  occ. eigenvalues --  -89.14883 -89.01844 -19.21058 -19.19631 -19.16605
 Alpha  occ. eigenvalues --  -19.16507 -19.02902 -19.02895 -19.02833 -14.46042
 Alpha  occ. eigenvalues --  -14.44393 -10.31226 -10.30533 -10.29908 -10.29790
 Alpha  occ. eigenvalues --  -10.29780 -10.29451 -10.29386 -10.26894 -10.26545
 Alpha  occ. eigenvalues --  -10.26438 -10.25828 -10.25694 -10.25499 -10.25466
 Alpha  occ. eigenvalues --  -10.25404 -10.25355 -10.25243 -10.24896 -10.24879
 Alpha  occ. eigenvalues --  -10.24570 -10.22271 -10.21510 -10.19686 -10.19451
 Alpha  occ. eigenvalues --  -10.19022  -8.18045  -8.04680  -6.14469  -6.14314
 Alpha  occ. eigenvalues --   -6.14173  -6.01010  -6.00983  -6.00974  -1.15713
 Alpha  occ. eigenvalues --   -1.09429  -1.05859  -1.05436  -1.05203  -1.02999
 Alpha  occ. eigenvalues --   -1.01749  -0.92423  -0.90246  -0.88926  -0.88491
 Alpha  occ. eigenvalues --   -0.88219  -0.87604  -0.86587  -0.85252  -0.82470
 Alpha  occ. eigenvalues --   -0.81471  -0.80143  -0.77630  -0.76682  -0.74994
 Alpha  occ. eigenvalues --   -0.74174  -0.73299  -0.71000  -0.68696  -0.67842
 Alpha  occ. eigenvalues --   -0.66275  -0.64997  -0.64632  -0.62509  -0.61643
 Alpha  occ. eigenvalues --   -0.60272  -0.58701  -0.58486  -0.57762  -0.56925
 Alpha  occ. eigenvalues --   -0.55841  -0.54913  -0.54445  -0.54124  -0.53164
 Alpha  occ. eigenvalues --   -0.52477  -0.51788  -0.51278  -0.50780  -0.50258
 Alpha  occ. eigenvalues --   -0.49657  -0.49240  -0.48631  -0.48225  -0.47996
 Alpha  occ. eigenvalues --   -0.47639  -0.46696  -0.46264  -0.45875  -0.45623
 Alpha  occ. eigenvalues --   -0.45498  -0.44812  -0.44489  -0.44235  -0.43778
 Alpha  occ. eigenvalues --   -0.43654  -0.42965  -0.42324  -0.41475  -0.40868
 Alpha  occ. eigenvalues --   -0.40523  -0.39854  -0.39518  -0.38772  -0.38390
 Alpha  occ. eigenvalues --   -0.37705  -0.36971  -0.36405  -0.36134  -0.35936
 Alpha  occ. eigenvalues --   -0.34869  -0.34798  -0.34097  -0.34055  -0.31993
 Alpha  occ. eigenvalues --   -0.31283  -0.31227  -0.30512  -0.27014  -0.26787
 Alpha  occ. eigenvalues --   -0.23959  -0.23775  -0.23585  -0.20973  -0.20741
 Alpha  occ. eigenvalues --   -0.19770  -0.16612
 Alpha virt. eigenvalues --   -0.13802  -0.07435  -0.07077  -0.04469  -0.02183
 Alpha virt. eigenvalues --   -0.00699   0.00117   0.00492   0.00817   0.01098
 Alpha virt. eigenvalues --    0.02326   0.03200   0.03583   0.03823   0.04245

 Mulliken atomic charges:
              1
     1  C   -0.009085
     2  C    0.226962
     3  C   -0.132660
     4  C    0.044921
     5  C   -0.243206
     6  C    0.111320
     7  C    0.188549
     8  C    0.068483
     9  N   -0.293917
    10  C    0.121905
    11  C    0.030053
    12  C    0.149505
    13  C   -0.070288
    14  O   -0.318182
    15  C    0.116300
    16  C   -0.083170
    17  C   -0.011682
    18  C    0.040010
    19  C    0.095910
    20  N   -0.316272
    21  C    0.073131
    22  C    0.185702
    23  C   -0.155192
    24  C    0.269136
    25  C   -0.011768
    26  C    0.108779
    27  C   -0.252402
    28  C    0.050254
    29  S    0.986573
    30  S    0.993908
    31  O   -0.516211
    32  O   -0.519672
    33  O   -0.524135
    34  O   -0.411371
    35  O   -0.324905
    36  O   -0.438610
    37  H   -0.028452
    38  H   -0.024052
    39  H   -0.005858
    40  H    0.081291
    41  H    0.081023
    42  H    0.061847
    43  H    0.061569
    44  H    0.021989
    45  H    0.039469
    46  H    0.024893
    47  H    0.010224
    48  H   -0.027367
    49  H    0.033141
    50  H    0.025858
    51  H    0.047687
    52  H    0.044287
    53  H    0.077354
    54  H    0.079128
    55  H   -0.011533
    56  H    0.004767
    57  H   -0.016099
    58  H    0.190161
 Sum of Mulliken atomic charges =   0.00000

 Dipole moment (field-independent basis, Debye):
    X=             23.4023    Y=             15.3709    Z=              0.1654  Tot=             27.9993
 Quadrupole moment (field-independent basis, Debye-Ang):
   XX=           -461.5565   YY=           -218.5504   ZZ=           -227.4715
   XY=            -72.7725   XZ=             18.2621   YZ=            -11.2980

 Normal termination of Gaussian 09 at Wed Mar 18 20:48:52 2015.
