 Gaussian 09, Revision B.01,
 Gaussian 09:  EM64L-G09RevB.01 12-Aug-2010

 ------------------------------------------------------
 # opt=modredundant B3LYP/cc-pVDZ Geom=PrintInputOrient
 ------------------------------------------------------

 -------------------------------
 CY3 Dihedral Scan at MP2/6-31G*
 -------------------------------
 Symbolic Z-matrix:
 Charge =  0 Multiplicity = 1

 SCF Done:  E(RB3LYP) =  -2398.26711824     A.U. after   22 cycles
 SCF Done:  E(RB3LYP) =  -2398.26712607     A.U. after    8 cycles
 Optimization completed.
    -- Stationary point found.
 SCF Done:  E(RB3LYP) =  -2398.26406899     A.U. after   13 cycles
 SCF Done:  E(RB3LYP) =  -2398.26418444     A.U. after   11 cycles
 SCF Done:  E(RB3LYP) =  -2398.26566042     A.U. after   12 cycles
 SCF Done:  E(RB3LYP) =  -2398.26577095     A.U. after   11 cycles
 SCF Done:  E(RB3LYP) =  -2398.26579256     A.U. after   11 cycles
 SCF Done:  E(RB3LYP) =  -2398.26579600     A.U. after   10 cycles
 SCF Done:  E(RB3LYP) =  -2398.26579672     A.U. after    8 cycles
 SCF Done:  E(RB3LYP) =  -2398.26579690     A.U. after    7 cycles
 SCF Done:  E(RB3LYP) =  -2398.26579700     A.U. after    7 cycles
 SCF Done:  E(RB3LYP) =  -2398.26579706     A.U. after    7 cycles
 Optimization completed.
    -- Stationary point found.
 SCF Done:  E(RB3LYP) =  -2398.25896959     A.U. after   14 cycles
 SCF Done:  E(RB3LYP) =  -2398.26152552     A.U. after   12 cycles
 SCF Done:  E(RB3LYP) =  -2398.26165052     A.U. after   12 cycles
 SCF Done:  E(RB3LYP) =  -2398.26165631     A.U. after    9 cycles
 SCF Done:  E(RB3LYP) =  -2398.26165710     A.U. after    8 cycles
 SCF Done:  E(RB3LYP) =  -2398.26165722     A.U. after    7 cycles
 Optimization completed.
    -- Stationary point found.

                         Standard orientation:
 ---------------------------------------------------------------------
 Center     Atomic      Atomic             Coordinates (Angstroms)
 Number     Number       Type             X           Y           Z
 ---------------------------------------------------------------------
      1          6           0       -6.090538    1.152523   -0.140731
      2          6           0       -4.749079    0.792798    0.006335
      3          6           0       -4.321973   -0.545153    0.088580
      4          6           0       -5.249604   -1.570759    0.021512
      5          6           0       -6.607198   -1.231643   -0.106337
      6          6           0       -7.016778    0.109089   -0.197481
      7          6           0       -2.817787   -0.546397    0.222066
      8          6           0       -2.478675    0.925373    0.227335
      9          7           0       -3.608701    1.628214    0.084311
     10          6           0       -3.666121    3.095341   -0.015908
     11          6           0       -2.297267    3.686849   -0.356748
     12          6           0       -1.233337    3.060409    0.553378
     13          6           0       -1.210935    1.554900    0.351823
     14          8           0        0.033796    3.698409    0.456036
     15          6           0        1.037125    3.020763   -0.302500
     16          6           0        1.200310    1.579824    0.146361
     17          6           0       -0.018937    0.865472    0.305773
     18          6           0        2.332483    3.814049   -0.167869
     19          6           0        3.518125    2.996245   -0.678155
     20          7           0        3.615437    1.750093    0.093757
     21          6           0        2.447227    1.019089    0.272549
     22          6           0        2.805296   -0.434275    0.514009
     23          6           0        4.284426   -0.454487    0.204548
     24          6           0        4.716607    0.874287    0.032225
     25          6           0        6.052445    1.190376   -0.219927
     26          6           0        6.972593    0.138040   -0.278645
     27          6           0        6.539998   -1.175700   -0.086695
     28          6           0        5.194818   -1.497034    0.154843
     29         16           0       -7.864272   -2.577364   -0.111030
     30         16           0        7.736965   -2.503539   -0.192902
     31          8           0       -8.164159   -2.689465    1.355040
     32          8           0       -8.968902   -2.013946   -0.950829
     33          8           0       -7.113864   -3.735610   -0.697174
     34          8           0        8.949010   -2.000141   -0.859628
     35          8           0        8.065116   -2.685688    1.431150
     36          8           0        7.070287   -3.751243   -0.624751
     37          1           0       -6.410840    2.193965   -0.208496
     38          1           0       -4.980425   -2.628573    0.050780
     39          1           0       -8.082374    0.305160   -0.328607
     40          1           0       -2.317723   -1.063088   -0.614030
     41          1           0       -2.466557   -1.026761    1.150886
     42          1           0       -4.043350    3.482888    0.945426
     43          1           0       -4.410320    3.343489   -0.785174
     44          1           0       -2.329081    4.775570   -0.206228
     45          1           0       -2.049479    3.498060   -1.414140
     46          1           0       -1.545817    3.239488    1.600084
     47          1           0        0.729338    3.001205   -1.368806
     48          1           0       -0.016969   -0.227940    0.336600
     49          1           0        2.482918    4.058704    0.895629
     50          1           0        2.261459    4.759802   -0.723964
     51          1           0        4.449334    3.564813   -0.552402
     52          1           0        3.413047    2.749425   -1.751200
     53          1           0        2.209927   -1.104399   -0.126356
     54          1           0        2.611142   -0.732941    1.558723
     55          1           0        6.381644    2.217928   -0.377148
     56          1           0        8.025641    0.328301   -0.486816
     57          1           0        4.892805   -2.538353    0.275016
     58          1           0        8.155802   -3.648856    1.565874
 ---------------------------------------------------------------------

 The electronic state is 1-A.
 Alpha  occ. eigenvalues --  -89.14883 -89.01981 -19.21060 -19.19649 -19.16613
 Alpha  occ. eigenvalues --  -19.16511 -19.03043 -19.03026 -19.02973 -14.46363
 Alpha  occ. eigenvalues --  -14.43724 -10.31273 -10.30370 -10.30091 -10.29730
 Alpha  occ. eigenvalues --  -10.29468 -10.29116 -10.29077 -10.26763 -10.26563
 Alpha  occ. eigenvalues --  -10.26482 -10.25758 -10.25748 -10.25717 -10.25661
 Alpha  occ. eigenvalues --  -10.25596 -10.25436 -10.25186 -10.25002 -10.24620
 Alpha  occ. eigenvalues --  -10.24584 -10.22482 -10.21744 -10.19868 -10.19627
 Alpha  occ. eigenvalues --  -10.19204  -8.18047  -8.04817  -6.14470  -6.14314
 Alpha  occ. eigenvalues --   -6.14174  -6.01148  -6.01120  -6.01112  -1.15722
 Alpha  occ. eigenvalues --   -1.09454  -1.06480  -1.05245  -1.05207  -1.03009
 Alpha  occ. eigenvalues --   -1.01891  -0.92325  -0.89862  -0.89118  -0.88633
 Alpha  occ. eigenvalues --   -0.88360  -0.87430  -0.86733  -0.85409  -0.82382
 Alpha  occ. eigenvalues --   -0.81341  -0.80157  -0.77632  -0.77056  -0.75034
 Alpha  occ. eigenvalues --   -0.74307  -0.73263  -0.71137  -0.68418  -0.67794
 Alpha  occ. eigenvalues --   -0.66465  -0.65320  -0.64497  -0.62651  -0.61853
 Alpha  occ. eigenvalues --   -0.59833  -0.58532  -0.57851  -0.57571  -0.57108
 Alpha  occ. eigenvalues --   -0.55941  -0.55281  -0.54449  -0.54131  -0.53072
 Alpha  occ. eigenvalues --   -0.52637  -0.52259  -0.51508  -0.50548  -0.50047
 Alpha  occ. eigenvalues --   -0.49429  -0.49138  -0.48641  -0.48469  -0.47926
 Alpha  occ. eigenvalues --   -0.47609  -0.46593  -0.46258  -0.46099  -0.45758
 Alpha  occ. eigenvalues --   -0.45290  -0.44839  -0.44735  -0.44292  -0.44096
 Alpha  occ. eigenvalues --   -0.43260  -0.42638  -0.42490  -0.41293  -0.40520
 Alpha  occ. eigenvalues --   -0.40101  -0.40006  -0.39136  -0.38851  -0.38583
 Alpha  occ. eigenvalues --   -0.38107  -0.36854  -0.36570  -0.36150  -0.36024
 Alpha  occ. eigenvalues --   -0.35011  -0.34736  -0.34118  -0.34071  -0.32004
 Alpha  occ. eigenvalues --   -0.31434  -0.31182  -0.30423  -0.27312  -0.26985
 Alpha  occ. eigenvalues --   -0.24305  -0.23914  -0.23785  -0.21115  -0.20875
 Alpha  occ. eigenvalues --   -0.19932  -0.16746
 Alpha virt. eigenvalues --   -0.13898  -0.07495  -0.07192  -0.04914  -0.02348
 Alpha virt. eigenvalues --   -0.00807  -0.00070   0.00294   0.00936   0.01120
 Alpha virt. eigenvalues --    0.02002   0.03038   0.03797   0.04075   0.04873

 Mulliken atomic charges:
              1
     1  C   -0.008224
     2  C    0.222806
     3  C   -0.130220
     4  C    0.044195
     5  C   -0.242990
     6  C    0.110688
     7  C    0.178553
     8  C    0.081928
     9  N   -0.262893
    10  C    0.087202
    11  C    0.049915
    12  C    0.155997
    13  C   -0.116382
    14  O   -0.317272
    15  C    0.120506
    16  C   -0.083458
    17  C    0.008345
    18  C    0.051957
    19  C    0.087167
    20  N   -0.304076
    21  C    0.071302
    22  C    0.174000
    23  C   -0.137828
    24  C    0.246450
    25  C   -0.006083
    26  C    0.108827
    27  C   -0.250033
    28  C    0.048576
    29  S    0.987113
    30  S    0.994420
    31  O   -0.515746
    32  O   -0.518992
    33  O   -0.523710
    34  O   -0.410903
    35  O   -0.324886
    36  O   -0.437996
    37  H   -0.026746
    38  H   -0.023869
    39  H   -0.005239
    40  H    0.082890
    41  H    0.082877
    42  H    0.059578
    43  H    0.062046
    44  H    0.032437
    45  H    0.024996
    46  H    0.025888
    47  H    0.011793
    48  H   -0.024540
    49  H    0.033752
    50  H    0.024633
    51  H    0.041268
    52  H    0.038645
    53  H    0.071634
    54  H    0.080182
    55  H   -0.011127
    56  H    0.004547
    57  H   -0.014292
    58  H    0.190391
 Sum of Mulliken atomic charges =   0.00000

 Dipole moment (field-independent basis, Debye):
    X=             21.9173    Y=             16.6396    Z=              1.3556  Tot=             27.5515
 Quadrupole moment (field-independent basis, Debye-Ang):
   XX=           -434.1417   YY=           -227.0549   ZZ=           -226.2776
   XY=            -79.2076   XZ=              9.5428   YZ=            -15.5302

 Normal termination of Gaussian 09 at Fri Mar 20 13:18:00 2015.
