 Gaussian 09, Revision B.01,
 Gaussian 09:  EM64L-G09RevB.01 12-Aug-2010

 ------------------------------------------------------
 # opt=modredundant B3LYP/cc-pVDZ Geom=PrintInputOrient
 ------------------------------------------------------

 -------------------------------
 CY3 Dihedral Scan at MP2/6-31G*
 -------------------------------
 Symbolic Z-matrix:
 Charge =  0 Multiplicity = 1

 SCF Done:  E(RB3LYP) =  -2398.26711824     A.U. after   22 cycles
 SCF Done:  E(RB3LYP) =  -2398.26712607     A.U. after    8 cycles
 Optimization completed.
    -- Stationary point found.
 SCF Done:  E(RB3LYP) =  -2398.26292978     A.U. after   14 cycles
 SCF Done:  E(RB3LYP) =  -2398.26484678     A.U. after   13 cycles
 SCF Done:  E(RB3LYP) =  -2398.26503597     A.U. after   11 cycles
 SCF Done:  E(RB3LYP) =  -2398.26505855     A.U. after   11 cycles
 SCF Done:  E(RB3LYP) =  -2398.26506370     A.U. after   10 cycles
 SCF Done:  E(RB3LYP) =  -2398.26506565     A.U. after    8 cycles
 SCF Done:  E(RB3LYP) =  -2398.26506633     A.U. after    8 cycles
 SCF Done:  E(RB3LYP) =  -2398.26506666     A.U. after    8 cycles
 SCF Done:  E(RB3LYP) =  -2398.26506744     A.U. after    7 cycles
 SCF Done:  E(RB3LYP) =  -2398.26506747     A.U. after    7 cycles
 Optimization completed.
    -- Stationary point found.
 SCF Done:  E(RB3LYP) =  -2398.25622117     A.U. after   14 cycles
 SCF Done:  E(RB3LYP) =  -2398.25870529     A.U. after   13 cycles
 SCF Done:  E(RB3LYP) =  -2398.25885030     A.U. after   13 cycles
 SCF Done:  E(RB3LYP) =  -2398.25886073     A.U. after   13 cycles
 SCF Done:  E(RB3LYP) =  -2398.25886736     A.U. after   12 cycles
 SCF Done:  E(RB3LYP) =  -2398.25886899     A.U. after   10 cycles
 SCF Done:  E(RB3LYP) =  -2398.25886922     A.U. after    8 cycles
 SCF Done:  E(RB3LYP) =  -2398.25886927     A.U. after    7 cycles
 Optimization completed.
    -- Stationary point found.

                         Standard orientation:
 ---------------------------------------------------------------------
 Center     Atomic      Atomic             Coordinates (Angstroms)
 Number     Number       Type             X           Y           Z
 ---------------------------------------------------------------------
      1          6           0       -6.112504    1.182624    0.282208
      2          6           0       -4.777994    0.777132    0.214856
      3          6           0       -4.396553   -0.557945   -0.011397
      4          6           0       -5.365129   -1.533045   -0.179594
      5          6           0       -6.714783   -1.151070   -0.096304
      6          6           0       -7.079418    0.187968    0.119442
      7          6           0       -2.887516   -0.612683   -0.043314
      8          6           0       -2.492687    0.821989    0.216811
      9          7           0       -3.604434    1.560725    0.333559
     10          6           0       -3.614562    3.019860    0.521966
     11          6           0       -2.266826    3.643497    0.151030
     12          6           0       -1.142392    2.831360    0.805116
     13          6           0       -1.199095    1.391320    0.326233
     14          8           0        0.140624    3.437059    0.701183
     15          6           0        0.994521    2.936140   -0.326287
     16          6           0        1.165684    1.426853   -0.207022
     17          6           0       -0.034413    0.706969    0.042787
     18          6           0        2.337455    3.658481   -0.209173
     19          6           0        3.422803    2.938769   -1.017915
     20          7           0        3.531923    1.553464   -0.561255
     21          6           0        2.433961    0.909805   -0.042197
     22          6           0        2.866803   -0.465982    0.421625
     23          6           0        4.346237   -0.472901    0.108431
     24          6           0        4.685029    0.770192   -0.467806
     25          6           0        5.983834    1.069750   -0.882479
     26          6           0        6.965367    0.090022   -0.696336
     27          6           0        6.629797   -1.131493   -0.108676
     28          6           0        5.318534   -1.440346    0.291215
     29         16           0       -8.016762   -2.446257   -0.235822
     30         16           0        7.906680   -2.368304    0.101847
     31          8           0       -8.169353   -2.853973    1.200229
     32          8           0       -9.179930   -1.704527   -0.819261
     33          8           0       -7.375415   -3.471045   -1.123018
     34          8           0        9.043152   -2.031978   -0.770931
     35          8           0        8.338799   -2.035683    1.677405
     36          8           0        7.302978   -3.718689    0.114149
     37          1           0       -6.397596    2.222379    0.453890
     38          1           0       -5.134530   -2.579998   -0.386903
     39          1           0       -8.144495    0.425222    0.141103
     40          1           0       -2.495631   -0.957953   -1.014518
     41          1           0       -2.461648   -1.277126    0.727461
     42          1           0       -3.873329    3.221945    1.575048
     43          1           0       -4.424719    3.426440   -0.099015
     44          1           0       -2.242907    4.683229    0.508180
     45          1           0       -2.138910    3.657187   -0.943694
     46          1           0       -1.336715    2.814097    1.894218
     47          1           0        0.540817    3.166258   -1.312633
     48          1           0       -0.052351   -0.380613   -0.080446
     49          1           0        2.624068    3.681091    0.854857
     50          1           0        2.247275    4.698649   -0.552918
     51          1           0        4.394653    3.432665   -0.882492
     52          1           0        3.186159    2.948978   -2.097784
     53          1           0        2.313334   -1.262531   -0.104690
     54          1           0        2.662480   -0.596973    1.497070
     55          1           0        6.235981    2.021684   -1.350596
     56          1           0        7.993138    0.263708   -1.015707
     57          1           0        5.092305   -2.418505    0.717757
     58          1           0        8.477763   -2.909089    2.091910
 ---------------------------------------------------------------------

 The electronic state is 1-A.
 Alpha  occ. eigenvalues --  -89.14957 -89.01780 -19.21118 -19.19835 -19.16695
 Alpha  occ. eigenvalues --  -19.16577 -19.02838 -19.02824 -19.02758 -14.45979
 Alpha  occ. eigenvalues --  -14.44574 -10.30968 -10.30649 -10.29982 -10.29835
 Alpha  occ. eigenvalues --  -10.29592 -10.29583 -10.29297 -10.26971 -10.26545
 Alpha  occ. eigenvalues --  -10.26333 -10.25952 -10.25798 -10.25609 -10.25471
 Alpha  occ. eigenvalues --  -10.25380 -10.25352 -10.25329 -10.25029 -10.24913
 Alpha  occ. eigenvalues --  -10.24341 -10.22219 -10.21503 -10.19643 -10.19395
 Alpha  occ. eigenvalues --  -10.18955  -8.18119  -8.04615  -6.14542  -6.14387
 Alpha  occ. eigenvalues --   -6.14246  -6.00946  -6.00919  -6.00910  -1.15792
 Alpha  occ. eigenvalues --   -1.09613  -1.06179  -1.06092  -1.05267  -1.03091
 Alpha  occ. eigenvalues --   -1.01682  -0.92558  -0.89627  -0.88903  -0.88425
 Alpha  occ. eigenvalues --   -0.88152  -0.87692  -0.86713  -0.85211  -0.82500
 Alpha  occ. eigenvalues --   -0.81531  -0.80067  -0.77643  -0.77026  -0.74985
 Alpha  occ. eigenvalues --   -0.74290  -0.73357  -0.71207  -0.68501  -0.67975
 Alpha  occ. eigenvalues --   -0.66379  -0.65288  -0.64742  -0.62509  -0.61682
 Alpha  occ. eigenvalues --   -0.59925  -0.58719  -0.58040  -0.57598  -0.57093
 Alpha  occ. eigenvalues --   -0.55864  -0.55161  -0.54568  -0.54205  -0.53065
 Alpha  occ. eigenvalues --   -0.52616  -0.52328  -0.51425  -0.50756  -0.50038
 Alpha  occ. eigenvalues --   -0.49625  -0.49203  -0.48765  -0.48443  -0.47798
 Alpha  occ. eigenvalues --   -0.47664  -0.46700  -0.46206  -0.45929  -0.45793
 Alpha  occ. eigenvalues --   -0.45147  -0.44800  -0.44595  -0.44341  -0.44002
 Alpha  occ. eigenvalues --   -0.43438  -0.42998  -0.42251  -0.41507  -0.40629
 Alpha  occ. eigenvalues --   -0.40185  -0.39865  -0.39449  -0.38710  -0.38370
 Alpha  occ. eigenvalues --   -0.37960  -0.36696  -0.36366  -0.36207  -0.35951
 Alpha  occ. eigenvalues --   -0.34854  -0.34749  -0.34156  -0.33980  -0.32094
 Alpha  occ. eigenvalues --   -0.31414  -0.31376  -0.30651  -0.27075  -0.26742
 Alpha  occ. eigenvalues --   -0.23981  -0.23712  -0.23552  -0.20911  -0.20675
 Alpha  occ. eigenvalues --   -0.19712  -0.16547
 Alpha virt. eigenvalues --   -0.13771  -0.07564  -0.07184  -0.04926  -0.02159
 Alpha virt. eigenvalues --   -0.00603  -0.00044   0.00262   0.00815   0.01028
 Alpha virt. eigenvalues --    0.01987   0.02790   0.03834   0.03988   0.04741

 Mulliken atomic charges:
              1
     1  C   -0.008459
     2  C    0.222742
     3  C   -0.131381
     4  C    0.044517
     5  C   -0.243040
     6  C    0.109771
     7  C    0.179358
     8  C    0.082075
     9  N   -0.264289
    10  C    0.089113
    11  C    0.048751
    12  C    0.151704
    13  C   -0.123401
    14  O   -0.313243
    15  C    0.141122
    16  C   -0.132939
    17  C    0.018148
    18  C    0.025631
    19  C    0.111450
    20  N   -0.288999
    21  C    0.064770
    22  C    0.188011
    23  C   -0.155683
    24  C    0.254093
    25  C   -0.000753
    26  C    0.109794
    27  C   -0.251436
    28  C    0.051068
    29  S    0.986569
    30  S    0.994863
    31  O   -0.516930
    32  O   -0.520074
    33  O   -0.524546
    34  O   -0.410358
    35  O   -0.325295
    36  O   -0.438381
    37  H   -0.027824
    38  H   -0.024426
    39  H   -0.006117
    40  H    0.082998
    41  H    0.080924
    42  H    0.058131
    43  H    0.061138
    44  H    0.031126
    45  H    0.025363
    46  H    0.024572
    47  H    0.007651
    48  H   -0.020299
    49  H    0.034570
    50  H    0.028323
    51  H    0.047422
    52  H    0.044013
    53  H    0.079357
    54  H    0.077244
    55  H   -0.009400
    56  H    0.005286
    57  H   -0.014683
    58  H    0.190291
 Sum of Mulliken atomic charges =   0.00000

 Dipole moment (field-independent basis, Debye):
    X=             23.1788    Y=             16.7069    Z=              1.9063  Tot=             28.6358
 Quadrupole moment (field-independent basis, Debye-Ang):
   XX=           -445.6988   YY=           -228.4199   ZZ=           -221.8112
   XY=            -73.0160   XZ=             -0.5012   YZ=            -13.9294

 Normal termination of Gaussian 09 at Thu Mar 19 19:47:31 2015.
