 Gaussian 09, Revision B.01,
 Gaussian 09:  EM64L-G09RevB.01 12-Aug-2010

 ------------------------------------------------------
 # opt=modredundant B3LYP/cc-pVDZ Geom=PrintInputOrient
 ------------------------------------------------------

 -------------------------------
 CY3 Dihedral Scan at MP2/6-31G*
 -------------------------------
 Symbolic Z-matrix:
 Charge =  0 Multiplicity = 1

 SCF Done:  E(RB3LYP) =  -2398.26711824     A.U. after   22 cycles
 SCF Done:  E(RB3LYP) =  -2398.26712608     A.U. after    8 cycles
 Optimization completed.
    -- Stationary point found.
 SCF Done:  E(RB3LYP) =  -2398.26139652     A.U. after   13 cycles
 SCF Done:  E(RB3LYP) =  -2398.26571925     A.U. after   14 cycles
 SCF Done:  E(RB3LYP) =  -2398.26606108     A.U. after   12 cycles
 SCF Done:  E(RB3LYP) =  -2398.26608471     A.U. after   11 cycles
 SCF Done:  E(RB3LYP) =  -2398.26608853     A.U. after   11 cycles
 SCF Done:  E(RB3LYP) =  -2398.26609027     A.U. after   10 cycles
 SCF Done:  E(RB3LYP) =  -2398.26609138     A.U. after   11 cycles
 SCF Done:  E(RB3LYP) =  -2398.26609216     A.U. after   11 cycles
 SCF Done:  E(RB3LYP) =  -2398.26609232     A.U. after    7 cycles
 SCF Done:  E(RB3LYP) =  -2398.26609236     A.U. after    7 cycles
 Optimization completed.
    -- Stationary point found.
 SCF Done:  E(RB3LYP) =  -2398.25825796     A.U. after   13 cycles
 SCF Done:  E(RB3LYP) =  -2398.26209435     A.U. after   14 cycles
 SCF Done:  E(RB3LYP) =  -2398.26223161     A.U. after   12 cycles
 SCF Done:  E(RB3LYP) =  -2398.26224107     A.U. after   11 cycles
 SCF Done:  E(RB3LYP) =  -2398.26224305     A.U. after   10 cycles
 SCF Done:  E(RB3LYP) =  -2398.26224342     A.U. after    8 cycles
 SCF Done:  E(RB3LYP) =  -2398.26224353     A.U. after    7 cycles
 Optimization completed.
    -- Stationary point found.

                         Standard orientation:
 ---------------------------------------------------------------------
 Center     Atomic      Atomic             Coordinates (Angstroms)
 Number     Number       Type             X           Y           Z
 ---------------------------------------------------------------------
      1          6           0       -6.003045    1.142635   -0.500988
      2          6           0       -4.720028    0.775912   -0.091515
      3          6           0       -4.382903   -0.538001    0.279643
      4          6           0       -5.347083   -1.532043    0.247776
      5          6           0       -6.650843   -1.181879   -0.140806
      6          6           0       -6.967939    0.132402   -0.520039
      7          6           0       -2.913667   -0.562587    0.631345
      8          6           0       -2.497142    0.874842    0.430731
      9          7           0       -3.555105    1.578017    0.007511
     10          6           0       -3.495626    2.984713   -0.427798
     11          6           0       -2.049204    3.469795   -0.600895
     12          6           0       -1.260658    3.027065    0.644241
     13          6           0       -1.236305    1.502981    0.604882
     14          8           0        0.044515    3.548099    0.822138
     15          6           0        1.032746    3.018796   -0.057883
     16          6           0        1.171515    1.528809    0.226818
     17          6           0       -0.035205    0.829825    0.505532
     18          6           0        2.339966    3.753473    0.225271
     19          6           0        3.516031    3.075103   -0.478473
     20          7           0        3.545180    1.648119   -0.162884
     21          6           0        2.411542    0.937971    0.166387
     22          6           0        2.808980   -0.506270    0.410561
     23          6           0        4.293680   -0.495043    0.123376
     24          6           0        4.670536    0.819834   -0.219460
     25          6           0        5.982001    1.151992   -0.563047
     26          6           0        6.936913    0.128767   -0.542493
     27          6           0        6.562868   -1.167123   -0.183059
     28          6           0        5.238155   -1.505678    0.142779
     29         16           0       -7.965367   -2.473183   -0.114999
     30         16           0        7.804972   -2.456008   -0.180943
     31          8           0       -8.494612   -2.317428    1.279928
     32          8           0       -8.894848   -2.038434   -1.206275
     33          8           0       -7.197377   -3.736377   -0.367845
     34          8           0        8.971715   -1.995490   -0.951379
     35          8           0        8.200556   -2.432584    1.438470
     36          8           0        7.171137   -3.768260   -0.434293
     37          1           0       -6.251125    2.164669   -0.794192
     38          1           0       -5.143318   -2.576044    0.494577
     39          1           0       -7.990233    0.333433   -0.845077
     40          1           0       -2.331746   -1.239033   -0.017194
     41          1           0       -2.720051   -0.873832    1.671559
     42          1           0       -4.029113    3.593891    0.320391
     43          1           0       -4.056340    3.057715   -1.370564
     44          1           0       -2.058907    4.566477   -0.699726
     45          1           0       -1.607337    3.046189   -1.515494
     46          1           0       -1.802225    3.360371    1.544706
     47          1           0        0.732470    3.177387   -1.112434
     48          1           0       -0.026180   -0.263628    0.538109
     49          1           0        2.499907    3.751416    1.315292
     50          1           0        2.271830    4.801001   -0.101269
     51          1           0        4.463796    3.523726   -0.148098
     52          1           0        3.453454    3.203424   -1.574874
     53          1           0        2.255636   -1.191031   -0.253376
     54          1           0        2.584988   -0.812038    1.445705
     55          1           0        6.265675    2.164353   -0.851771
     56          1           0        7.973244    0.328582   -0.815551
     57          1           0        4.980958   -2.537291    0.386794
     58          1           0        8.330021   -3.369611    1.681902
 ---------------------------------------------------------------------

 The electronic state is 1-A.
 Alpha  occ. eigenvalues --  -89.14916 -89.01684 -19.21084 -19.19957 -19.16642
 Alpha  occ. eigenvalues --  -19.16540 -19.02739 -19.02718 -19.02623 -14.46034
 Alpha  occ. eigenvalues --  -14.44513 -10.31129 -10.30664 -10.30157 -10.29982
 Alpha  occ. eigenvalues --  -10.29623 -10.29576 -10.29470 -10.26966 -10.26656
 Alpha  occ. eigenvalues --  -10.26495 -10.25896 -10.25746 -10.25558 -10.25434
 Alpha  occ. eigenvalues --  -10.25427 -10.25423 -10.25318 -10.25288 -10.25102
 Alpha  occ. eigenvalues --  -10.24526 -10.22208 -10.21471 -10.19592 -10.19348
 Alpha  occ. eigenvalues --  -10.18854  -8.18078  -8.04517  -6.14502  -6.14346
 Alpha  occ. eigenvalues --   -6.14206  -6.00849  -6.00821  -6.00812  -1.15749
 Alpha  occ. eigenvalues --   -1.10087  -1.06246  -1.05958  -1.05232  -1.03040
 Alpha  occ. eigenvalues --   -1.01578  -0.92495  -0.89775  -0.88891  -0.88317
 Alpha  occ. eigenvalues --   -0.88052  -0.87735  -0.86788  -0.85283  -0.82486
 Alpha  occ. eigenvalues --   -0.81592  -0.80168  -0.77648  -0.77018  -0.75092
 Alpha  occ. eigenvalues --   -0.74334  -0.73380  -0.71221  -0.68965  -0.67931
 Alpha  occ. eigenvalues --   -0.66346  -0.65253  -0.64674  -0.62483  -0.61633
 Alpha  occ. eigenvalues --   -0.60173  -0.58709  -0.58359  -0.57743  -0.57033
 Alpha  occ. eigenvalues --   -0.55994  -0.55089  -0.54478  -0.54157  -0.53359
 Alpha  occ. eigenvalues --   -0.52673  -0.52265  -0.51287  -0.50911  -0.50262
 Alpha  occ. eigenvalues --   -0.49590  -0.49338  -0.48730  -0.48454  -0.47769
 Alpha  occ. eigenvalues --   -0.47738  -0.46760  -0.46352  -0.45949  -0.45832
 Alpha  occ. eigenvalues --   -0.45437  -0.44937  -0.44621  -0.44262  -0.43977
 Alpha  occ. eigenvalues --   -0.43603  -0.43004  -0.42343  -0.41444  -0.40821
 Alpha  occ. eigenvalues --   -0.40339  -0.40184  -0.39575  -0.38834  -0.38293
 Alpha  occ. eigenvalues --   -0.37946  -0.36909  -0.36309  -0.36191  -0.35871
 Alpha  occ. eigenvalues --   -0.34931  -0.34745  -0.34110  -0.34030  -0.32031
 Alpha  occ. eigenvalues --   -0.31552  -0.31327  -0.30698  -0.27000  -0.26708
 Alpha  occ. eigenvalues --   -0.23931  -0.23611  -0.23482  -0.20820  -0.20579
 Alpha  occ. eigenvalues --   -0.19635  -0.16445
 Alpha virt. eigenvalues --   -0.13489  -0.07422  -0.07137  -0.04692  -0.02105
 Alpha virt. eigenvalues --   -0.00629  -0.00153   0.00152   0.00778   0.00884
 Alpha virt. eigenvalues --    0.01767   0.03030   0.03571   0.03855   0.04593

 Mulliken atomic charges:
              1
     1  C   -0.007382
     2  C    0.220917
     3  C   -0.134846
     4  C    0.043323
     5  C   -0.243100
     6  C    0.109814
     7  C    0.180095
     8  C    0.080178
     9  N   -0.259984
    10  C    0.095567
    11  C    0.032396
    12  C    0.146246
    13  C   -0.109260
    14  O   -0.303025
    15  C    0.105184
    16  C   -0.082593
    17  C    0.018704
    18  C    0.044336
    19  C    0.095193
    20  N   -0.315006
    21  C    0.075934
    22  C    0.185642
    23  C   -0.155300
    24  C    0.268681
    25  C   -0.010504
    26  C    0.108974
    27  C   -0.252174
    28  C    0.050319
    29  S    0.986317
    30  S    0.994716
    31  O   -0.517773
    32  O   -0.521212
    33  O   -0.525815
    34  O   -0.410983
    35  O   -0.325189
    36  O   -0.438175
    37  H   -0.029067
    38  H   -0.024436
    39  H   -0.006371
    40  H    0.080861
    41  H    0.082899
    42  H    0.058627
    43  H    0.061600
    44  H    0.031034
    45  H    0.029417
    46  H    0.020072
    47  H    0.010803
    48  H   -0.026698
    49  H    0.035589
    50  H    0.025805
    51  H    0.048191
    52  H    0.044500
    53  H    0.078527
    54  H    0.079742
    55  H   -0.011183
    56  H    0.004935
    57  H   -0.015329
    58  H    0.190266
 Sum of Mulliken atomic charges =   0.00000

 Dipole moment (field-independent basis, Debye):
    X=             23.2926    Y=             16.7847    Z=              1.0359  Tot=             28.7288
 Quadrupole moment (field-independent basis, Debye-Ang):
   XX=           -446.1098   YY=           -225.2678   ZZ=           -224.8827
   XY=            -74.0717   XZ=             12.2599   YZ=            -18.7282

 Normal termination of Gaussian 09 at Wed Mar 18 23:06:13 2015.
