 Gaussian 09, Revision B.01,
 Gaussian 09:  EM64L-G09RevB.01 12-Aug-2010

 ------------------------------------------------------
 # opt=modredundant B3LYP/cc-pVDZ Geom=PrintInputOrient
 ------------------------------------------------------

 -------------------------------
 CY3 Dihedral Scan at MP2/6-31G*
 -------------------------------
 Symbolic Z-matrix:
 Charge =  0 Multiplicity = 1

 SCF Done:  E(RB3LYP) =  -2398.26711824     A.U. after   22 cycles
 SCF Done:  E(RB3LYP) =  -2398.26712608     A.U. after    8 cycles
 Optimization completed.
    -- Stationary point found.
 SCF Done:  E(RB3LYP) =  -2398.25778014     A.U. after   13 cycles
 SCF Done:  E(RB3LYP) =  -2398.26312011     A.U. after   12 cycles
 SCF Done:  E(RB3LYP) =  -2398.26401502     A.U. after   12 cycles
 SCF Done:  E(RB3LYP) =  -2398.26407467     A.U. after   11 cycles
 SCF Done:  E(RB3LYP) =  -2398.26408170     A.U. after   11 cycles
 SCF Done:  E(RB3LYP) =  -2398.26408376     A.U. after   10 cycles
 SCF Done:  E(RB3LYP) =  -2398.26408439     A.U. after    8 cycles
 SCF Done:  E(RB3LYP) =  -2398.26408469     A.U. after    8 cycles
 SCF Done:  E(RB3LYP) =  -2398.26408492     A.U. after    7 cycles
 Optimization completed.
    -- Stationary point found.
 SCF Done:  E(RB3LYP) =  -2398.24549675     A.U. after   13 cycles
 SCF Done:  E(RB3LYP) =  -2398.25101730     A.U. after   13 cycles
 SCF Done:  E(RB3LYP) =  -2398.25188613     A.U. after   12 cycles
 SCF Done:  E(RB3LYP) =  -2398.25192693     A.U. after   12 cycles
 SCF Done:  E(RB3LYP) =  -2398.25193681     A.U. after   11 cycles
 SCF Done:  E(RB3LYP) =  -2398.25194278     A.U. after   11 cycles
 SCF Done:  E(RB3LYP) =  -2398.25194569     A.U. after   11 cycles
 SCF Done:  E(RB3LYP) =  -2398.25194610     A.U. after    8 cycles
 SCF Done:  E(RB3LYP) =  -2398.25194636     A.U. after    7 cycles
 Optimization completed.
    -- Stationary point found.

                         Standard orientation:
 ---------------------------------------------------------------------
 Center     Atomic      Atomic             Coordinates (Angstroms)
 Number     Number       Type             X           Y           Z
 ---------------------------------------------------------------------
      1          6           0       -6.111195    1.156350   -0.002373
      2          6           0       -4.766726    0.787275    0.081948
      3          6           0       -4.341106   -0.553112    0.061668
      4          6           0       -5.273127   -1.571700   -0.046138
      5          6           0       -6.632781   -1.224527   -0.112097
      6          6           0       -7.041230    0.119727   -0.102482
      7          6           0       -2.833470   -0.564913    0.149166
      8          6           0       -2.489878    0.903061    0.243377
      9          7           0       -3.622458    1.615281    0.182292
     10          6           0       -3.678754    3.085650    0.178741
     11          6           0       -2.318668    3.697756   -0.163870
     12          6           0       -1.232618    3.009098    0.672129
     13          6           0       -1.218842    1.522385    0.367631
     14          8           0        0.034659    3.649988    0.594899
     15          6           0        1.013297    3.074085   -0.260409
     16          6           0        1.181016    1.558937    0.026378
     17          6           0       -0.028595    0.841056    0.223110
     18          6           0        2.374626    3.681284    0.037990
     19          6           0        3.316427    2.937669   -0.916193
     20          7           0        3.593037    1.680961   -0.226614
     21          6           0        2.439224    0.980023    0.103930
     22          6           0        2.840015   -0.430399    0.489496
     23          6           0        4.322971   -0.445524    0.180016
     24          6           0        4.705902    0.837064   -0.268338
     25          6           0        6.012990    1.130981   -0.657997
     26          6           0        6.958939    0.102952   -0.582807
     27          6           0        6.581509   -1.159120   -0.118636
     28          6           0        5.261841   -1.459696    0.258327
     29         16           0       -7.894157   -2.565198   -0.169815
     30         16           0        7.812347   -2.457153   -0.046983
     31          8           0       -8.203107   -2.727192    1.289621
     32          8           0       -8.992319   -1.967440   -0.994347
     33          8           0       -7.146352   -3.705416   -0.793665
     34          8           0        8.949437   -2.082050   -0.902791
     35          8           0        8.280798   -2.294830    1.544643
     36          8           0        7.156092   -3.778871   -0.152155
     37          1           0       -6.431171    2.200068    0.008651
     38          1           0       -5.006990   -2.629639   -0.094289
     39          1           0       -8.109178    0.326586   -0.190355
     40          1           0       -2.360721   -1.024647   -0.734646
     41          1           0       -2.455710   -1.107232    1.032353
     42          1           0       -4.025455    3.411616    1.173842
     43          1           0       -4.444881    3.384222   -0.550109
     44          1           0       -2.343299    4.774116    0.059551
     45          1           0       -2.103614    3.578711   -1.238484
     46          1           0       -1.518447    3.116065    1.735954
     47          1           0        0.733294    3.237917   -1.317998
     48          1           0       -0.027711   -0.252627    0.187358
     49          1           0        2.663802    3.525473    1.084541
     50          1           0        2.368704    4.762002   -0.171108
     51          1           0        4.259388    3.480875   -1.066725
     52          1           0        2.860930    2.745822   -1.901571
     53          1           0        2.277284   -1.185921   -0.083886
     54          1           0        2.635763   -0.624359    1.555876
     55          1           0        6.297573    2.119841   -1.019185
     56          1           0        7.990707    0.271630   -0.891752
     57          1           0        5.001373   -2.469315    0.579048
     58          1           0        8.369009   -3.208960    1.876910
 ---------------------------------------------------------------------

 The electronic state is 1-A.
 Alpha  occ. eigenvalues --  -89.14865 -89.01905 -19.21016 -19.19854 -19.16611
 Alpha  occ. eigenvalues --  -19.16483 -19.02973 -19.02942 -19.02889 -14.46208
 Alpha  occ. eigenvalues --  -14.44000 -10.31164 -10.30534 -10.30138 -10.30037
 Alpha  occ. eigenvalues --  -10.29453 -10.29428 -10.29143 -10.26896 -10.26556
 Alpha  occ. eigenvalues --  -10.26425 -10.25827 -10.25670 -10.25624 -10.25615
 Alpha  occ. eigenvalues --  -10.25506 -10.25474 -10.25218 -10.25040 -10.24908
 Alpha  occ. eigenvalues --  -10.24509 -10.22384 -10.21648 -10.19753 -10.19568
 Alpha  occ. eigenvalues --  -10.19107  -8.18026  -8.04741  -6.14450  -6.14296
 Alpha  occ. eigenvalues --   -6.14153  -6.01072  -6.01044  -6.01035  -1.15705
 Alpha  occ. eigenvalues --   -1.09670  -1.06357  -1.05783  -1.05171  -1.03006
 Alpha  occ. eigenvalues --   -1.01812  -0.92578  -0.89798  -0.88968  -0.88551
 Alpha  occ. eigenvalues --   -0.88284  -0.87814  -0.86577  -0.85369  -0.82459
 Alpha  occ. eigenvalues --   -0.81277  -0.80092  -0.77619  -0.77007  -0.74978
 Alpha  occ. eigenvalues --   -0.74133  -0.73351  -0.71019  -0.68473  -0.67820
 Alpha  occ. eigenvalues --   -0.66283  -0.65238  -0.64718  -0.62742  -0.61794
 Alpha  occ. eigenvalues --   -0.60258  -0.58905  -0.57996  -0.57681  -0.57048
 Alpha  occ. eigenvalues --   -0.56025  -0.55218  -0.54310  -0.54065  -0.53105
 Alpha  occ. eigenvalues --   -0.52710  -0.52244  -0.51576  -0.50482  -0.50025
 Alpha  occ. eigenvalues --   -0.49087  -0.49052  -0.48635  -0.48493  -0.47943
 Alpha  occ. eigenvalues --   -0.47258  -0.46589  -0.46420  -0.46054  -0.45798
 Alpha  occ. eigenvalues --   -0.45415  -0.44945  -0.44751  -0.44374  -0.44000
 Alpha  occ. eigenvalues --   -0.43162  -0.42954  -0.42402  -0.41872  -0.40527
 Alpha  occ. eigenvalues --   -0.40205  -0.39842  -0.39131  -0.38758  -0.38486
 Alpha  occ. eigenvalues --   -0.38126  -0.36812  -0.36498  -0.36102  -0.35901
 Alpha  occ. eigenvalues --   -0.34927  -0.34685  -0.34081  -0.34023  -0.32041
 Alpha  occ. eigenvalues --   -0.31554  -0.31230  -0.30471  -0.27203  -0.26895
 Alpha  occ. eigenvalues --   -0.24178  -0.23838  -0.23691  -0.21053  -0.20785
 Alpha  occ. eigenvalues --   -0.19845  -0.16670
 Alpha virt. eigenvalues --   -0.13857  -0.07407  -0.07130  -0.04857  -0.02261
 Alpha virt. eigenvalues --   -0.00723  -0.00051   0.00280   0.00885   0.01278
 Alpha virt. eigenvalues --    0.01957   0.02896   0.03874   0.03925   0.04704

 Mulliken atomic charges:
              1
     1  C   -0.008997
     2  C    0.222798
     3  C   -0.129637
     4  C    0.041564
     5  C   -0.243192
     6  C    0.112813
     7  C    0.178518
     8  C    0.082944
     9  N   -0.264222
    10  C    0.088586
    11  C    0.047992
    12  C    0.148862
    13  C   -0.116930
    14  O   -0.312858
    15  C    0.143914
    16  C   -0.114739
    17  C    0.011910
    18  C    0.048698
    19  C    0.104522
    20  N   -0.297699
    21  C    0.061846
    22  C    0.189885
    23  C   -0.156713
    24  C    0.255617
    25  C   -0.000095
    26  C    0.109984
    27  C   -0.250908
    28  C    0.047305
    29  S    0.986763
    30  S    0.995194
    31  O   -0.516054
    32  O   -0.519457
    33  O   -0.523978
    34  O   -0.410476
    35  O   -0.325030
    36  O   -0.439230
    37  H   -0.027217
    38  H   -0.024012
    39  H   -0.005744
    40  H    0.082775
    41  H    0.082131
    42  H    0.059033
    43  H    0.061549
    44  H    0.032385
    45  H    0.024982
    46  H    0.026785
    47  H    0.012979
    48  H   -0.024918
    49  H    0.034624
    50  H    0.017486
    51  H    0.031006
    52  H    0.042348
    53  H    0.076416
    54  H    0.078693
    55  H   -0.010977
    56  H    0.004776
    57  H   -0.014787
    58  H    0.190186
 Sum of Mulliken atomic charges =   0.00000

 Dipole moment (field-independent basis, Debye):
    X=             22.1551    Y=             16.9955    Z=              1.5321  Tot=             27.9650
 Quadrupole moment (field-independent basis, Debye-Ang):
   XX=           -437.4069   YY=           -230.5539   ZZ=           -223.4830
   XY=            -77.3807   XZ=              5.3343   YZ=            -15.6668

 Normal termination of Gaussian 09 at Thu Mar 19 17:03:46 2015.
