 Gaussian 09, Revision B.01,
 Gaussian 09:  EM64L-G09RevB.01 12-Aug-2010

 ------------------------------------------------------
 # opt=modredundant B3LYP/cc-pVDZ Geom=PrintInputOrient
 ------------------------------------------------------

 -------------------------------
 CY3 Dihedral Scan at MP2/6-31G*
 -------------------------------
 Symbolic Z-matrix:
 Charge =  0 Multiplicity = 1

 SCF Done:  E(RB3LYP) =  -2398.26711824     A.U. after   22 cycles
 SCF Done:  E(RB3LYP) =  -2398.26712608     A.U. after    8 cycles
 Optimization completed.
    -- Stationary point found.
 SCF Done:  E(RB3LYP) =  -2398.26384598     A.U. after   13 cycles
 SCF Done:  E(RB3LYP) =  -2398.26544792     A.U. after   12 cycles
 SCF Done:  E(RB3LYP) =  -2398.26563512     A.U. after   11 cycles
 SCF Done:  E(RB3LYP) =  -2398.26565505     A.U. after   11 cycles
 SCF Done:  E(RB3LYP) =  -2398.26565817     A.U. after   11 cycles
 SCF Done:  E(RB3LYP) =  -2398.26565859     A.U. after    8 cycles
 SCF Done:  E(RB3LYP) =  -2398.26565881     A.U. after    8 cycles
 SCF Done:  E(RB3LYP) =  -2398.26565896     A.U. after    8 cycles
 SCF Done:  E(RB3LYP) =  -2398.26565904     A.U. after    7 cycles
 Optimization completed.
    -- Stationary point found.
 SCF Done:  E(RB3LYP) =  -2398.25805494     A.U. after   14 cycles
 SCF Done:  E(RB3LYP) =  -2398.26073358     A.U. after   13 cycles
 SCF Done:  E(RB3LYP) =  -2398.26083914     A.U. after   12 cycles
 SCF Done:  E(RB3LYP) =  -2398.26084858     A.U. after   11 cycles
 SCF Done:  E(RB3LYP) =  -2398.26084998     A.U. after    8 cycles
 SCF Done:  E(RB3LYP) =  -2398.26085037     A.U. after    8 cycles
 SCF Done:  E(RB3LYP) =  -2398.26085039     A.U. after    7 cycles
 Optimization completed.
    -- Stationary point found.

                         Standard orientation:
 ---------------------------------------------------------------------
 Center     Atomic      Atomic             Coordinates (Angstroms)
 Number     Number       Type             X           Y           Z
 ---------------------------------------------------------------------
      1          6           0       -6.120983    1.179663    0.091922
      2          6           0       -4.779535    0.791102    0.121755
      3          6           0       -4.373056   -0.553037    0.042159
      4          6           0       -5.321637   -1.555705   -0.070416
      5          6           0       -6.677790   -1.189452   -0.081913
      6          6           0       -7.067459    0.158899   -0.014348
      7          6           0       -2.863800   -0.586466    0.081344
      8          6           0       -2.497593    0.873086    0.213064
      9          7           0       -3.621721    1.600513    0.214288
     10          6           0       -3.657455    3.070382    0.269743
     11          6           0       -2.302185    3.676883   -0.098248
     12          6           0       -1.192710    2.947283    0.669498
     13          6           0       -1.213516    1.470765    0.315715
     14          8           0        0.076151    3.579440    0.549696
     15          6           0        1.026035    2.968210   -0.324907
     16          6           0        1.180655    1.482652   -0.030618
     17          6           0       -0.041093    0.773840    0.113870
     18          6           0        2.334379    3.747971   -0.183490
     19          6           0        3.513036    2.983346   -0.794928
     20          7           0        3.573495    1.663158   -0.161658
     21          6           0        2.419820    0.895746   -0.121346
     22          6           0        2.807399   -0.560129    0.056124
     23          6           0        4.316691   -0.506478   -0.007839
     24          6           0        4.710229    0.836942   -0.169199
     25          6           0        6.050712    1.204679   -0.296859
     26          6           0        7.013106    0.190531   -0.242742
     27          6           0        6.617526   -1.136270   -0.062327
     28          6           0        5.268221   -1.510763    0.044513
     29         16           0       -7.958570   -2.511234   -0.144091
     30         16           0        7.871151   -2.413400   -0.017550
     31          8           0       -8.239057   -2.702436    1.317548
     32          8           0       -9.065248   -1.879356   -0.930872
     33          8           0       -7.240445   -3.646768   -0.809944
     34          8           0        9.120963   -1.875180   -0.579227
     35          8           0        8.049138   -2.544167    1.634658
     36          8           0        7.299406   -3.697846   -0.477362
     37          1           0       -6.426317    2.226283    0.148046
     38          1           0       -5.072029   -2.614768   -0.162262
     39          1           0       -8.134572    0.382551   -0.061825
     40          1           0       -2.425211   -1.022538   -0.831636
     41          1           0       -2.466117   -1.162424    0.933939
     42          1           0       -3.964587    3.360630    1.288640
     43          1           0       -4.444470    3.407149   -0.419030
     44          1           0       -2.303466    4.744552    0.164638
     45          1           0       -2.126401    3.595269   -1.183414
     46          1           0       -1.430354    3.022748    1.748011
     47          1           0        0.661488    3.056585   -1.369753
     48          1           0       -0.061336   -0.315542    0.019752
     49          1           0        2.522884    3.904866    0.890439
     50          1           0        2.236356    4.736864   -0.654071
     51          1           0        4.451120    3.517927   -0.597285
     52          1           0        3.409340    2.863924   -1.888789
     53          1           0        2.373811   -1.188445   -0.740562
     54          1           0        2.440644   -0.960545    1.015071
     55          1           0        6.354261    2.242000   -0.439891
     56          1           0        8.073080    0.421524   -0.349967
     57          1           0        4.998323   -2.562853    0.145684
     58          1           0        8.168598   -3.498870    1.802969
 ---------------------------------------------------------------------

 The electronic state is 1-A.
 Alpha  occ. eigenvalues --  -89.14858 -89.01960 -19.21034 -19.19651 -19.16588
 Alpha  occ. eigenvalues --  -19.16482 -19.03031 -19.02997 -19.02952 -14.46274
 Alpha  occ. eigenvalues --  -14.43867 -10.31202 -10.30418 -10.30085 -10.29812
 Alpha  occ. eigenvalues --  -10.29423 -10.29166 -10.29161 -10.26802 -10.26539
 Alpha  occ. eigenvalues --  -10.26426 -10.25745 -10.25719 -10.25679 -10.25635
 Alpha  occ. eigenvalues --  -10.25555 -10.25433 -10.25180 -10.24977 -10.24632
 Alpha  occ. eigenvalues --  -10.24617 -10.22442 -10.21699 -10.19798 -10.19632
 Alpha  occ. eigenvalues --  -10.19171  -8.18021  -8.04796  -6.14445  -6.14290
 Alpha  occ. eigenvalues --   -6.14149  -6.01127  -6.01099  -6.01091  -1.15693
 Alpha  occ. eigenvalues --   -1.09431  -1.06409  -1.05449  -1.05181  -1.02980
 Alpha  occ. eigenvalues --   -1.01869  -0.92327  -0.89847  -0.89087  -0.88606
 Alpha  occ. eigenvalues --   -0.88343  -0.87401  -0.86739  -0.85375  -0.82382
 Alpha  occ. eigenvalues --   -0.81333  -0.80133  -0.77638  -0.77061  -0.75028
 Alpha  occ. eigenvalues --   -0.74342  -0.73261  -0.71155  -0.68393  -0.67826
 Alpha  occ. eigenvalues --   -0.66422  -0.65279  -0.64533  -0.62616  -0.61823
 Alpha  occ. eigenvalues --   -0.59917  -0.58545  -0.57905  -0.57500  -0.57051
 Alpha  occ. eigenvalues --   -0.55950  -0.55221  -0.54394  -0.54103  -0.53077
 Alpha  occ. eigenvalues --   -0.52554  -0.52361  -0.51431  -0.50666  -0.50038
 Alpha  occ. eigenvalues --   -0.49516  -0.49111  -0.48641  -0.48400  -0.47859
 Alpha  occ. eigenvalues --   -0.47623  -0.46619  -0.46267  -0.46081  -0.45729
 Alpha  occ. eigenvalues --   -0.45257  -0.44877  -0.44705  -0.44250  -0.44092
 Alpha  occ. eigenvalues --   -0.43240  -0.42670  -0.42477  -0.41264  -0.40497
 Alpha  occ. eigenvalues --   -0.40107  -0.39975  -0.39196  -0.38860  -0.38566
 Alpha  occ. eigenvalues --   -0.38164  -0.36884  -0.36551  -0.36143  -0.36005
 Alpha  occ. eigenvalues --   -0.34977  -0.34699  -0.34089  -0.34034  -0.31989
 Alpha  occ. eigenvalues --   -0.31383  -0.31179  -0.30440  -0.27252  -0.26948
 Alpha  occ. eigenvalues --   -0.24196  -0.23894  -0.23734  -0.21114  -0.20834
 Alpha  occ. eigenvalues --   -0.19899  -0.16725
 Alpha virt. eigenvalues --   -0.13933  -0.07394  -0.07178  -0.05097  -0.02320
 Alpha virt. eigenvalues --   -0.00803  -0.00133   0.00283   0.01010   0.01257
 Alpha virt. eigenvalues --    0.02026   0.03072   0.03790   0.03913   0.04899

 Mulliken atomic charges:
              1
     1  C   -0.009458
     2  C    0.223377
     3  C   -0.129504
     4  C    0.040751
     5  C   -0.243257
     6  C    0.113722
     7  C    0.178766
     8  C    0.079371
     9  N   -0.263732
    10  C    0.087184
    11  C    0.049592
    12  C    0.159747
    13  C   -0.116963
    14  O   -0.318857
    15  C    0.108448
    16  C   -0.067037
    17  C    0.012956
    18  C    0.054110
    19  C    0.086266
    20  N   -0.301347
    21  C    0.047566
    22  C    0.188857
    23  C   -0.152813
    24  C    0.263850
    25  C   -0.010929
    26  C    0.109949
    27  C   -0.251163
    28  C    0.048791
    29  S    0.986855
    30  S    0.994076
    31  O   -0.515596
    32  O   -0.519134
    33  O   -0.523727
    34  O   -0.411120
    35  O   -0.324586
    36  O   -0.438381
    37  H   -0.026865
    38  H   -0.023888
    39  H   -0.005575
    40  H    0.082676
    41  H    0.082439
    42  H    0.059325
    43  H    0.061723
    44  H    0.032259
    45  H    0.024939
    46  H    0.026327
    47  H    0.011634
    48  H   -0.023749
    49  H    0.032900
    50  H    0.023595
    51  H    0.042255
    52  H    0.041635
    53  H    0.075247
    54  H    0.078627
    55  H   -0.010990
    56  H    0.004178
    57  H   -0.015573
    58  H    0.190250
 Sum of Mulliken atomic charges =   0.00000

 Dipole moment (field-independent basis, Debye):
    X=             22.0575    Y=             16.3040    Z=              1.1274  Tot=             27.4523
 Quadrupole moment (field-independent basis, Debye-Ang):
   XX=           -444.0853   YY=           -225.2628   ZZ=           -225.4773
   XY=            -77.4658   XZ=              4.0960   YZ=            -13.4004

 Normal termination of Gaussian 09 at Thu Mar 19 21:52:34 2015.
