 Gaussian 09, Revision B.01,
 Gaussian 09:  EM64L-G09RevB.01 12-Aug-2010

 ------------------------------------------------------
 # opt=modredundant B3LYP/cc-pVDZ Geom=PrintInputOrient
 ------------------------------------------------------

 -------------------------------
 CY3 Dihedral Scan at MP2/6-31G*
 -------------------------------
 Symbolic Z-matrix:
 Charge =  0 Multiplicity = 1

 SCF Done:  E(RB3LYP) =  -2398.26711824     A.U. after   22 cycles
 SCF Done:  E(RB3LYP) =  -2398.26712608     A.U. after    8 cycles
 Optimization completed.
    -- Stationary point found.
 SCF Done:  E(RB3LYP) =  -2398.25608588     A.U. after   13 cycles
 SCF Done:  E(RB3LYP) =  -2398.26277748     A.U. after   13 cycles
 SCF Done:  E(RB3LYP) =  -2398.26379296     A.U. after   12 cycles
 SCF Done:  E(RB3LYP) =  -2398.26395263     A.U. after   12 cycles
 SCF Done:  E(RB3LYP) =  -2398.26402260     A.U. after   12 cycles
 SCF Done:  E(RB3LYP) =  -2398.26405014     A.U. after   12 cycles
 SCF Done:  E(RB3LYP) =  -2398.26406900     A.U. after   11 cycles
 SCF Done:  E(RB3LYP) =  -2398.26408369     A.U. after   11 cycles
 Optimization completed.
    -- Stationary point found.
 SCF Done:  E(RB3LYP) =  -2398.26181147     A.U. after   11 cycles
 SCF Done:  E(RB3LYP) =  -2398.26181284     A.U. after   10 cycles
 SCF Done:  E(RB3LYP) =  -2398.26181357     A.U. after   10 cycles
 SCF Done:  E(RB3LYP) =  -2398.26181376     A.U. after    8 cycles
 SCF Done:  E(RB3LYP) =  -2398.26181404     A.U. after    8 cycles
 SCF Done:  E(RB3LYP) =  -2398.26181443     A.U. after    8 cycles
 SCF Done:  E(RB3LYP) =  -2398.26181519     A.U. after   10 cycles
 SCF Done:  E(RB3LYP) =  -2398.26181632     A.U. after   10 cycles
 SCF Done:  E(RB3LYP) =  -2398.26181691     A.U. after   10 cycles
 SCF Done:  E(RB3LYP) =  -2398.26181698     A.U. after    7 cycles
 Optimization completed.
    -- Stationary point found.

                         Standard orientation:
 ---------------------------------------------------------------------
 Center     Atomic      Atomic             Coordinates (Angstroms)
 Number     Number       Type             X           Y           Z
 ---------------------------------------------------------------------
      1          6           0       -6.076333    1.120760    0.578040
      2          6           0       -4.753743    0.765246    0.305006
      3          6           0       -4.385016   -0.520203   -0.132121
      4          6           0       -5.353611   -1.493759   -0.308199
      5          6           0       -6.688903   -1.163438   -0.021888
      6          6           0       -7.042772    0.127865    0.402114
      7          6           0       -2.888896   -0.531708   -0.337462
      8          6           0       -2.484983    0.870328    0.055351
      9          7           0       -3.582612    1.556406    0.390400
     10          6           0       -3.558049    2.921230    0.912633
     11          6           0       -2.312680    3.716243    0.501659
     12          6           0       -1.010532    2.910870    0.434517
     13          6           0       -1.197712    1.447125    0.081421
     14          8           0       -0.153908    3.568464   -0.499722
     15          6           0        1.118592    2.963585   -0.714814
     16          6           0        1.171958    1.475479   -0.392285
     17          6           0       -0.043350    0.758791   -0.238933
     18          6           0        2.257340    3.699128    0.003489
     19          6           0        3.602350    3.104550   -0.423869
     20          7           0        3.577859    1.640976   -0.339680
     21          6           0        2.419366    0.899953   -0.282377
     22          6           0        2.792278   -0.556526   -0.077727
     23          6           0        4.303415   -0.516074   -0.085220
     24          6           0        4.710711    0.824085   -0.243478
     25          6           0        6.055590    1.192710   -0.299829
     26          6           0        7.011013    0.176260   -0.183542
     27          6           0        6.603025   -1.147521   -0.011223
     28          6           0        5.248523   -1.519974    0.030344
     29         16           0       -7.979436   -2.468881   -0.166682
     30         16           0        7.850365   -2.425926    0.114303
     31          8           0       -7.966521   -3.037781    1.222021
     32          8           0       -9.210909   -1.698398   -0.531919
     33          8           0       -7.426128   -3.371650   -1.228667
     34          8           0        9.129508   -1.894828   -0.384311
     35          8           0        7.937273   -2.537863    1.775310
     36          8           0        7.301608   -3.714100   -0.362017
     37          1           0       -6.354172    2.122542    0.911132
     38          1           0       -5.135280   -2.501183   -0.668315
     39          1           0       -8.100720    0.331853    0.576084
     40          1           0       -2.602108   -0.741811   -1.380970
     41          1           0       -2.373225   -1.276845    0.292185
     42          1           0       -3.645900    2.846568    2.011086
     43          1           0       -4.460614    3.435045    0.555900
     44          1           0       -2.201852    4.579135    1.171873
     45          1           0       -2.470489    4.117380   -0.513497
     46          1           0       -0.524468    2.932307    1.432615
     47          1           0        1.281692    3.070493   -1.803600
     48          1           0       -0.055110   -0.329257   -0.352714
     49          1           0        2.129387    3.610265    1.094662
     50          1           0        2.238789    4.768058   -0.253437
     51          1           0        4.409894    3.472285    0.226818
     52          1           0        3.852338    3.399255   -1.458536
     53          1           0        2.380017   -1.187289   -0.882980
     54          1           0        2.390147   -0.946113    0.871864
     55          1           0        6.366096    2.227797   -0.444249
     56          1           0        8.075881    0.403427   -0.237600
     57          1           0        4.972052   -2.569606    0.138600
     58          1           0        8.053187   -3.489855    1.960899
 ---------------------------------------------------------------------

 The electronic state is 1-A.
 Alpha  occ. eigenvalues --  -89.15054 -89.01707 -19.21228 -19.19670 -19.16779
 Alpha  occ. eigenvalues --  -19.16676 -19.02768 -19.02751 -19.02688 -14.45703
 Alpha  occ. eigenvalues --  -14.44832 -10.30919 -10.30716 -10.29940 -10.29891
 Alpha  occ. eigenvalues --  -10.29707 -10.29604 -10.29070 -10.27142 -10.26685
 Alpha  occ. eigenvalues --  -10.26391 -10.26089 -10.25917 -10.25720 -10.25505
 Alpha  occ. eigenvalues --  -10.25372 -10.25169 -10.25000 -10.24984 -10.24864
 Alpha  occ. eigenvalues --  -10.24844 -10.22079 -10.21385 -10.19523 -10.19298
 Alpha  occ. eigenvalues --  -10.18852  -8.18217  -8.04543  -6.14640  -6.14484
 Alpha  occ. eigenvalues --   -6.14345  -6.00873  -6.00846  -6.00838  -1.15887
 Alpha  occ. eigenvalues --   -1.09447  -1.06155  -1.06029  -1.05374  -1.03178
 Alpha  occ. eigenvalues --   -1.01607  -0.92655  -0.89524  -0.88883  -0.88351
 Alpha  occ. eigenvalues --   -0.88076  -0.87793  -0.86785  -0.85063  -0.82534
 Alpha  occ. eigenvalues --   -0.81616  -0.80043  -0.77572  -0.77201  -0.74865
 Alpha  occ. eigenvalues --   -0.74491  -0.73297  -0.71389  -0.68334  -0.68057
 Alpha  occ. eigenvalues --   -0.66459  -0.65427  -0.64736  -0.62655  -0.61693
 Alpha  occ. eigenvalues --   -0.59547  -0.58743  -0.57813  -0.57615  -0.56971
 Alpha  occ. eigenvalues --   -0.55862  -0.55161  -0.54676  -0.54230  -0.53287
 Alpha  occ. eigenvalues --   -0.52684  -0.52213  -0.51372  -0.50934  -0.50363
 Alpha  occ. eigenvalues --   -0.49678  -0.49184  -0.48811  -0.48122  -0.47893
 Alpha  occ. eigenvalues --   -0.47756  -0.46917  -0.46718  -0.45856  -0.45474
 Alpha  occ. eigenvalues --   -0.45051  -0.44822  -0.44458  -0.44004  -0.43897
 Alpha  occ. eigenvalues --   -0.43657  -0.42868  -0.42407  -0.41367  -0.40794
 Alpha  occ. eigenvalues --   -0.40122  -0.39783  -0.39088  -0.38907  -0.38313
 Alpha  occ. eigenvalues --   -0.37965  -0.36545  -0.36322  -0.36280  -0.35895
 Alpha  occ. eigenvalues --   -0.35152  -0.34694  -0.34243  -0.34091  -0.32146
 Alpha  occ. eigenvalues --   -0.31499  -0.31311  -0.30578  -0.27157  -0.26645
 Alpha  occ. eigenvalues --   -0.23946  -0.23644  -0.23472  -0.20840  -0.20595
 Alpha  occ. eigenvalues --   -0.19621  -0.16477
 Alpha virt. eigenvalues --   -0.13755  -0.07551  -0.07299  -0.04657  -0.02055
 Alpha virt. eigenvalues --   -0.00569   0.00035   0.00323   0.00705   0.01049
 Alpha virt. eigenvalues --    0.01724   0.02890   0.03510   0.04029   0.04713

 Mulliken atomic charges:
              1
     1  C   -0.009593
     2  C    0.221573
     3  C   -0.131871
     4  C    0.042941
     5  C   -0.243137
     6  C    0.110570
     7  C    0.179786
     8  C    0.087181
     9  N   -0.262178
    10  C    0.094709
    11  C    0.030444
    12  C    0.129665
    13  C   -0.094430
    14  O   -0.315657
    15  C    0.159970
    16  C   -0.145460
    17  C    0.013016
    18  C    0.049839
    19  C    0.090703
    20  N   -0.315501
    21  C    0.078556
    22  C    0.184356
    23  C   -0.153853
    24  C    0.267239
    25  C   -0.009103
    26  C    0.108571
    27  C   -0.251739
    28  C    0.051065
    29  S    0.986291
    30  S    0.994685
    31  O   -0.517617
    32  O   -0.519926
    33  O   -0.524599
    34  O   -0.410467
    35  O   -0.325088
    36  O   -0.437201
    37  H   -0.027499
    38  H   -0.024985
    39  H   -0.006579
    40  H    0.082993
    41  H    0.079473
    42  H    0.057178
    43  H    0.061411
    44  H    0.031598
    45  H    0.043859
    46  H    0.014015
    47  H    0.021511
    48  H   -0.022444
    49  H    0.021785
    50  H    0.029153
    51  H    0.047488
    52  H    0.047085
    53  H    0.080709
    54  H    0.078335
    55  H   -0.010595
    56  H    0.005695
    57  H   -0.014556
    58  H    0.190631
 Sum of Mulliken atomic charges =   0.00000

 Dipole moment (field-independent basis, Debye):
    X=             23.6804    Y=             16.3148    Z=              2.9203  Tot=             28.9044
 Quadrupole moment (field-independent basis, Debye-Ang):
   XX=           -447.4087   YY=           -225.0965   ZZ=           -223.4951
   XY=            -72.2770   XZ=             -0.2550   YZ=             -4.1855

 Normal termination of Gaussian 09 at Wed Mar 18 19:25:27 2015.
