 Gaussian 09, Revision B.01,
 Gaussian 09:  EM64L-G09RevB.01 12-Aug-2010

 ------------------------------------------------------
 # opt=modredundant B3LYP/cc-pVDZ Geom=PrintInputOrient
 ------------------------------------------------------

 -------------------------------
 CY3 Dihedral Scan at MP2/6-31G*
 -------------------------------
 Symbolic Z-matrix:
 Charge =  0 Multiplicity = 1

 SCF Done:  E(RB3LYP) =  -2398.26711824     A.U. after   22 cycles
 SCF Done:  E(RB3LYP) =  -2398.26712607     A.U. after    8 cycles
 Optimization completed.
    -- Stationary point found.
 SCF Done:  E(RB3LYP) =  -2398.26420655     A.U. after   13 cycles
 SCF Done:  E(RB3LYP) =  -2398.26422029     A.U. after    8 cycles
 SCF Done:  E(RB3LYP) =  -2398.26566263     A.U. after   12 cycles
 SCF Done:  E(RB3LYP) =  -2398.26577139     A.U. after   11 cycles
 SCF Done:  E(RB3LYP) =  -2398.26579546     A.U. after   11 cycles
 SCF Done:  E(RB3LYP) =  -2398.26579890     A.U. after   10 cycles
 SCF Done:  E(RB3LYP) =  -2398.26579966     A.U. after    8 cycles
 SCF Done:  E(RB3LYP) =  -2398.26579989     A.U. after    8 cycles
 Optimization completed.
    -- Stationary point found.
 SCF Done:  E(RB3LYP) =  -2398.26162166     A.U. after   10 cycles
 SCF Done:  E(RB3LYP) =  -2398.26162224     A.U. after    8 cycles
 SCF Done:  E(RB3LYP) =  -2398.26162239     A.U. after    7 cycles
 SCF Done:  E(RB3LYP) =  -2398.26162248     A.U. after    7 cycles
 SCF Done:  E(RB3LYP) =  -2398.26162247     A.U. after    7 cycles
 SCF Done:  E(RB3LYP) =  -2398.26162247     A.U. after    7 cycles
 SCF Done:  E(RB3LYP) =  -2398.26162248     A.U. after    7 cycles
 SCF Done:  E(RB3LYP) =  -2398.26162252     A.U. after    7 cycles
 SCF Done:  E(RB3LYP) =  -2398.26162255     A.U. after    8 cycles
 SCF Done:  E(RB3LYP) =  -2398.26162258     A.U. after    6 cycles
 Optimization completed.
    -- Stationary point found.

                         Standard orientation:
 ---------------------------------------------------------------------
 Center     Atomic      Atomic             Coordinates (Angstroms)
 Number     Number       Type             X           Y           Z
 ---------------------------------------------------------------------
      1          6           0       -6.111223    1.178384   -0.034617
      2          6           0       -4.771558    0.798855    0.072346
      3          6           0       -4.358935   -0.545605    0.088221
      4          6           0       -5.299612   -1.557519   -0.006316
      5          6           0       -6.655122   -1.199292   -0.095175
      6          6           0       -7.050441    0.148338   -0.120601
      7          6           0       -2.852307   -0.570243    0.192158
      8          6           0       -2.494936    0.896470    0.252072
      9          7           0       -3.620096    1.618379    0.163207
     10          6           0       -3.659805    3.088366    0.114299
     11          6           0       -2.288988    3.674262   -0.232455
     12          6           0       -1.221394    2.997904    0.636757
     13          6           0       -1.220750    1.507945    0.369259
     14          8           0        0.050871    3.627060    0.562360
     15          6           0        1.097319    3.024537   -0.198873
     16          6           0        1.177605    1.524356   -0.002578
     17          6           0       -0.035799    0.823195    0.207182
     18          6           0        2.394328    3.664385    0.298837
     19          6           0        3.623238    3.077015   -0.392562
     20          7           0        3.537267    1.610892   -0.520258
     21          6           0        2.404030    0.916134   -0.135196
     22          6           0        2.780858   -0.528374    0.137632
     23          6           0        4.284215   -0.507569   -0.014760
     24          6           0        4.660316    0.767088   -0.478839
     25          6           0        5.983248    1.084739   -0.789892
     26          6           0        6.947664    0.083299   -0.628274
     27          6           0        6.570134   -1.175922   -0.158053
     28          6           0        5.235977   -1.501478    0.137330
     29         16           0       -7.927930   -2.530005   -0.138363
     30         16           0        7.825061   -2.439630    0.031365
     31          8           0       -8.236114   -2.677879    1.322637
     32          8           0       -9.022595   -1.931164   -0.966926
     33          8           0       -7.189838   -3.681492   -0.753349
     34          8           0        9.019583   -2.042442   -0.731249
     35          8           0        8.148913   -2.244243    1.654970
     36          8           0        7.216100   -3.779971   -0.111671
     37          1           0       -6.420965    2.225130   -0.051509
     38          1           0       -5.042601   -2.618574   -0.027923
     39          1           0       -8.115443    0.362733   -0.224918
     40          1           0       -2.375400   -1.057905   -0.674366
     41          1           0       -2.489537   -1.092765    1.093277
     42          1           0       -4.013025    3.449368    1.094941
     43          1           0       -4.414686    3.372830   -0.631795
     44          1           0       -2.303058    4.757226   -0.042361
     45          1           0       -2.062381    3.519146   -1.300050
     46          1           0       -1.522441    3.137011    1.693015
     47          1           0        0.949325    3.249000   -1.275925
     48          1           0       -0.044180   -0.268294    0.143460
     49          1           0        2.444039    3.494876    1.385928
     50          1           0        2.373827    4.751065    0.133316
     51          1           0        4.532698    3.315133    0.180384
     52          1           0        3.749804    3.511951   -1.399165
     53          1           0        2.310424   -1.215452   -0.587466
     54          1           0        2.447672   -0.841391    1.139303
     55          1           0        6.266608    2.070984   -1.159033
     56          1           0        7.993665    0.270932   -0.871443
     57          1           0        4.978207   -2.507969    0.469550
     58          1           0        8.259433   -3.150348    2.002501
 ---------------------------------------------------------------------

 The electronic state is 1-A.
 Alpha  occ. eigenvalues --  -89.14993 -89.01790 -19.21164 -19.19802 -19.16729
 Alpha  occ. eigenvalues --  -19.16622 -19.02853 -19.02827 -19.02761 -14.46014
 Alpha  occ. eigenvalues --  -14.44277 -10.31040 -10.30601 -10.30096 -10.30020
 Alpha  occ. eigenvalues --  -10.29348 -10.29306 -10.29300 -10.26944 -10.26616
 Alpha  occ. eigenvalues --  -10.26587 -10.25934 -10.25795 -10.25591 -10.25491
 Alpha  occ. eigenvalues --  -10.25486 -10.25408 -10.25338 -10.24929 -10.24853
 Alpha  occ. eigenvalues --  -10.24618 -10.22250 -10.21518 -10.19644 -10.19431
 Alpha  occ. eigenvalues --  -10.18967  -8.18156  -8.04625  -6.14580  -6.14424
 Alpha  occ. eigenvalues --   -6.14284  -6.00956  -6.00928  -6.00920  -1.15834
 Alpha  occ. eigenvalues --   -1.09515  -1.06195  -1.05553  -1.05313  -1.03130
 Alpha  occ. eigenvalues --   -1.01691  -0.92462  -0.89811  -0.89082  -0.88431
 Alpha  occ. eigenvalues --   -0.88164  -0.87562  -0.86873  -0.85255  -0.82445
 Alpha  occ. eigenvalues --   -0.81512  -0.80123  -0.77614  -0.77099  -0.74996
 Alpha  occ. eigenvalues --   -0.74447  -0.73226  -0.71263  -0.68545  -0.68014
 Alpha  occ. eigenvalues --   -0.66405  -0.65275  -0.64586  -0.62532  -0.61665
 Alpha  occ. eigenvalues --   -0.59804  -0.58452  -0.58015  -0.57638  -0.57114
 Alpha  occ. eigenvalues --   -0.55976  -0.55121  -0.54661  -0.54181  -0.53271
 Alpha  occ. eigenvalues --   -0.52667  -0.52314  -0.51076  -0.50908  -0.50243
 Alpha  occ. eigenvalues --   -0.49773  -0.49211  -0.48730  -0.48399  -0.47800
 Alpha  occ. eigenvalues --   -0.47689  -0.46681  -0.46432  -0.45937  -0.45664
 Alpha  occ. eigenvalues --   -0.45110  -0.44810  -0.44509  -0.44063  -0.43943
 Alpha  occ. eigenvalues --   -0.43531  -0.43137  -0.42315  -0.41601  -0.40675
 Alpha  occ. eigenvalues --   -0.40266  -0.39796  -0.39176  -0.38912  -0.38380
 Alpha  occ. eigenvalues --   -0.37914  -0.36746  -0.36389  -0.36222  -0.35883
 Alpha  occ. eigenvalues --   -0.34908  -0.34766  -0.34202  -0.34121  -0.32146
 Alpha  occ. eigenvalues --   -0.31387  -0.31261  -0.30738  -0.27228  -0.26787
 Alpha  occ. eigenvalues --   -0.24056  -0.23722  -0.23575  -0.20931  -0.20677
 Alpha  occ. eigenvalues --   -0.19723  -0.16555
 Alpha virt. eigenvalues --   -0.13711  -0.07516  -0.07230  -0.04734  -0.02132
 Alpha virt. eigenvalues --   -0.00580   0.00164   0.00267   0.00782   0.00948
 Alpha virt. eigenvalues --    0.02158   0.02998   0.03636   0.04019   0.04707

 Mulliken atomic charges:
              1
     1  C   -0.009376
     2  C    0.223303
     3  C   -0.130836
     4  C    0.042307
     5  C   -0.243196
     6  C    0.111613
     7  C    0.179188
     8  C    0.080520
     9  N   -0.265356
    10  C    0.088779
    11  C    0.045007
    12  C    0.158295
    13  C   -0.113561
    14  O   -0.323495
    15  C    0.145275
    16  C   -0.103146
    17  C    0.006640
    18  C    0.033761
    19  C    0.094982
    20  N   -0.313863
    21  C    0.088420
    22  C    0.176978
    23  C   -0.140086
    24  C    0.251284
    25  C   -0.008565
    26  C    0.109447
    27  C   -0.250778
    28  C    0.047968
    29  S    0.986474
    30  S    0.995200
    31  O   -0.516836
    32  O   -0.520068
    33  O   -0.524740
    34  O   -0.409977
    35  O   -0.325161
    36  O   -0.437783
    37  H   -0.027769
    38  H   -0.024595
    39  H   -0.006135
    40  H    0.081963
    41  H    0.081479
    42  H    0.058325
    43  H    0.061374
    44  H    0.031605
    45  H    0.025386
    46  H    0.027650
    47  H    0.013024
    48  H   -0.025715
    49  H    0.028532
    50  H    0.027455
    51  H    0.048435
    52  H    0.044330
    53  H    0.081473
    54  H    0.073425
    55  H   -0.010869
    56  H    0.005774
    57  H   -0.014273
    58  H    0.190509
 Sum of Mulliken atomic charges =   0.00000

 Dipole moment (field-independent basis, Debye):
    X=             22.8446    Y=             16.9255    Z=              1.6198  Tot=             28.4776
 Quadrupole moment (field-independent basis, Debye-Ang):
   XX=           -440.2408   YY=           -228.5755   ZZ=           -223.9572
   XY=            -75.3014   XZ=              6.9907   YZ=            -13.1730

 Normal termination of Gaussian 09 at Fri Mar 20 12:17:24 2015.
