 Gaussian 09, Revision B.01,
 Gaussian 09:  EM64L-G09RevB.01 12-Aug-2010

 ------------------------------------------------------
 # opt=modredundant B3LYP/cc-pVDZ Geom=PrintInputOrient
 ------------------------------------------------------

 -------------------------------
 CY3 Dihedral Scan at MP2/6-31G*
 -------------------------------
 Symbolic Z-matrix:
 Charge =  0 Multiplicity = 1

 SCF Done:  E(RB3LYP) =  -2398.26711824     A.U. after   22 cycles
 SCF Done:  E(RB3LYP) =  -2398.26712606     A.U. after    8 cycles
 Optimization completed.
    -- Stationary point found.
 SCF Done:  E(RB3LYP) =  -2398.26229441     A.U. after   14 cycles
 SCF Done:  E(RB3LYP) =  -2398.26499220     A.U. after   12 cycles
 SCF Done:  E(RB3LYP) =  -2398.26555313     A.U. after   12 cycles
 SCF Done:  E(RB3LYP) =  -2398.26562030     A.U. after   11 cycles
 SCF Done:  E(RB3LYP) =  -2398.26562787     A.U. after   11 cycles
 SCF Done:  E(RB3LYP) =  -2398.26562879     A.U. after    8 cycles
 SCF Done:  E(RB3LYP) =  -2398.26562922     A.U. after    8 cycles
 SCF Done:  E(RB3LYP) =  -2398.26562965     A.U. after   11 cycles
 Optimization completed.
    -- Stationary point found.
 SCF Done:  E(RB3LYP) =  -2398.26148661     A.U. after    8 cycles
 SCF Done:  E(RB3LYP) =  -2398.26148792     A.U. after   10 cycles
 SCF Done:  E(RB3LYP) =  -2398.26148822     A.U. after    7 cycles
 SCF Done:  E(RB3LYP) =  -2398.26148847     A.U. after    8 cycles
 SCF Done:  E(RB3LYP) =  -2398.26148868     A.U. after    8 cycles
 SCF Done:  E(RB3LYP) =  -2398.26148902     A.U. after    8 cycles
 SCF Done:  E(RB3LYP) =  -2398.26148938     A.U. after    8 cycles
 SCF Done:  E(RB3LYP) =  -2398.26148957     A.U. after    8 cycles
 SCF Done:  E(RB3LYP) =  -2398.26148965     A.U. after    8 cycles
 SCF Done:  E(RB3LYP) =  -2398.26148967     A.U. after    7 cycles
 Optimization completed.
    -- Stationary point found.

                         Standard orientation:
 ---------------------------------------------------------------------
 Center     Atomic      Atomic             Coordinates (Angstroms)
 Number     Number       Type             X           Y           Z
 ---------------------------------------------------------------------
      1          6           0       -6.067085    1.191330    0.442271
      2          6           0       -4.738157    0.783209    0.308759
      3          6           0       -4.373462   -0.539948    0.000511
      4          6           0       -5.353596   -1.499628   -0.188193
      5          6           0       -6.697156   -1.115216   -0.042359
      6          6           0       -7.045437    0.212046    0.257933
      7          6           0       -2.866713   -0.600709   -0.083515
      8          6           0       -2.454243    0.818995    0.227418
      9          7           0       -3.556323    1.554400    0.424371
     10          6           0       -3.550404    3.002774    0.683417
     11          6           0       -2.216673    3.636465    0.282076
     12          6           0       -1.068126    2.792558    0.848375
     13          6           0       -1.153619    1.381574    0.302433
     14          8           0        0.204924    3.411063    0.714493
     15          6           0        1.083033    2.941880   -0.308938
     16          6           0        1.197436    1.426025   -0.300894
     17          6           0       -0.019368    0.717666   -0.112346
     18          6           0        2.435111    3.602178   -0.050332
     19          6           0        3.514050    3.016764   -0.961260
     20          7           0        3.542874    1.557731   -0.846639
     21          6           0        2.390446    0.824218   -0.631724
     22          6           0        2.786180   -0.637216   -0.533453
     23          6           0        4.285271   -0.553545   -0.352997
     24          6           0        4.683665    0.771265   -0.632248
     25          6           0        6.027476    1.147880   -0.659337
     26          6           0        6.984072    0.167736   -0.369259
     27          6           0        6.581400   -1.134841   -0.070704
     28          6           0        5.231225   -1.525741   -0.083772
     29         16           0       -8.012910   -2.391947   -0.217646
     30         16           0        7.830394   -2.364203    0.292394
     31          8           0       -8.146452   -2.862590    1.200833
     32          8           0       -9.177771   -1.613788   -0.747699
     33          8           0       -7.395573   -3.380710   -1.161031
     34          8           0        9.133932   -1.872196   -0.181735
     35          8           0        7.815207   -2.279983    1.957297
     36          8           0        7.327722   -3.710968   -0.057253
     37          1           0       -6.339277    2.221911    0.678098
     38          1           0       -5.137743   -2.535213   -0.458878
     39          1           0       -8.107495    0.453950    0.325914
     40          1           0       -2.509291   -0.906189   -1.080985
     41          1           0       -2.421388   -1.300193    0.643978
     42          1           0       -3.759865    3.154824    1.755655
     43          1           0       -4.385312    3.441526    0.119916
     44          1           0       -2.169472    4.658823    0.684139
     45          1           0       -2.135444    3.698944   -0.815497
     46          1           0       -1.216946    2.724826    1.943204
     47          1           0        0.694948    3.259752   -1.299077
     48          1           0       -0.075564   -0.343633   -0.368404
     49          1           0        2.699231    3.432351    1.005729
     50          1           0        2.364391    4.688015   -0.207920
     51          1           0        4.501304    3.407420   -0.683411
     52          1           0        3.334811    3.290233   -2.015977
     53          1           0        2.537839   -1.174995   -1.467413
     54          1           0        2.266363   -1.150728    0.287000
     55          1           0        6.340507    2.163658   -0.901934
     56          1           0        8.047375    0.407975   -0.380830
     57          1           0        4.959184   -2.564469    0.108452
     58          1           0        7.858370   -3.208240    2.257738
 ---------------------------------------------------------------------

 The electronic state is 1-A.
 Alpha  occ. eigenvalues --  -89.14861 -89.01896 -19.21012 -19.19820 -19.16600
 Alpha  occ. eigenvalues --  -19.16482 -19.02958 -19.02939 -19.02879 -14.46171
 Alpha  occ. eigenvalues --  -14.44236 -10.31149 -10.30607 -10.30122 -10.29988
 Alpha  occ. eigenvalues --  -10.29424 -10.29400 -10.29311 -10.26810 -10.26574
 Alpha  occ. eigenvalues --  -10.26398 -10.25795 -10.25648 -10.25627 -10.25613
 Alpha  occ. eigenvalues --  -10.25505 -10.25462 -10.25223 -10.25004 -10.24778
 Alpha  occ. eigenvalues --  -10.24763 -10.22369 -10.21637 -10.19768 -10.19534
 Alpha  occ. eigenvalues --  -10.19091  -8.18022  -8.04732  -6.14445  -6.14292
 Alpha  occ. eigenvalues --   -6.14148  -6.01063  -6.01035  -6.01026  -1.15701
 Alpha  occ. eigenvalues --   -1.09582  -1.06330  -1.05655  -1.05165  -1.02999
 Alpha  occ. eigenvalues --   -1.01802  -0.92364  -0.89859  -0.89088  -0.88542
 Alpha  occ. eigenvalues --   -0.88274  -0.87599  -0.86828  -0.85348  -0.82407
 Alpha  occ. eigenvalues --   -0.81473  -0.80143  -0.77625  -0.77109  -0.75074
 Alpha  occ. eigenvalues --   -0.74372  -0.73362  -0.71224  -0.68503  -0.67970
 Alpha  occ. eigenvalues --   -0.66469  -0.65273  -0.64610  -0.62551  -0.61770
 Alpha  occ. eigenvalues --   -0.60090  -0.58526  -0.58182  -0.57575  -0.57090
 Alpha  occ. eigenvalues --   -0.56026  -0.55221  -0.54373  -0.54069  -0.53167
 Alpha  occ. eigenvalues --   -0.52619  -0.52489  -0.51156  -0.50922  -0.50070
 Alpha  occ. eigenvalues --   -0.49565  -0.49162  -0.48650  -0.48430  -0.47847
 Alpha  occ. eigenvalues --   -0.47557  -0.46751  -0.46433  -0.46052  -0.45713
 Alpha  occ. eigenvalues --   -0.45284  -0.44997  -0.44649  -0.44262  -0.44062
 Alpha  occ. eigenvalues --   -0.43389  -0.42928  -0.42409  -0.41316  -0.40535
 Alpha  occ. eigenvalues --   -0.40066  -0.39919  -0.39424  -0.38814  -0.38486
 Alpha  occ. eigenvalues --   -0.38170  -0.36875  -0.36488  -0.36124  -0.35988
 Alpha  occ. eigenvalues --   -0.34935  -0.34779  -0.34077  -0.33974  -0.32075
 Alpha  occ. eigenvalues --   -0.31407  -0.31207  -0.30575  -0.27186  -0.26880
 Alpha  occ. eigenvalues --   -0.24092  -0.23827  -0.23668  -0.21031  -0.20788
 Alpha  occ. eigenvalues --   -0.19834  -0.16663
 Alpha virt. eigenvalues --   -0.13860  -0.07408  -0.07046  -0.04845  -0.02258
 Alpha virt. eigenvalues --   -0.00734  -0.00052   0.00219   0.00998   0.01327
 Alpha virt. eigenvalues --    0.02033   0.03052   0.03817   0.03967   0.04840

 Mulliken atomic charges:
              1
     1  C   -0.008858
     2  C    0.222853
     3  C   -0.130890
     4  C    0.043444
     5  C   -0.243159
     6  C    0.111040
     7  C    0.179062
     8  C    0.081669
     9  N   -0.264196
    10  C    0.088307
    11  C    0.047170
    12  C    0.159842
    13  C   -0.121815
    14  O   -0.320437
    15  C    0.122220
    16  C   -0.072261
    17  C    0.016093
    18  C    0.041724
    19  C    0.100059
    20  N   -0.303980
    21  C    0.060183
    22  C    0.169886
    23  C   -0.140474
    24  C    0.242851
    25  C    0.002478
    26  C    0.109474
    27  C   -0.250943
    28  C    0.052467
    29  S    0.986822
    30  S    0.995052
    31  O   -0.516086
    32  O   -0.519631
    33  O   -0.524297
    34  O   -0.410561
    35  O   -0.325101
    36  O   -0.439592
    37  H   -0.027147
    38  H   -0.024220
    39  H   -0.005708
    40  H    0.082595
    41  H    0.081818
    42  H    0.058727
    43  H    0.061486
    44  H    0.031998
    45  H    0.025191
    46  H    0.027178
    47  H    0.011014
    48  H   -0.021470
    49  H    0.029847
    50  H    0.024643
    51  H    0.042800
    52  H    0.045589
    53  H    0.078034
    54  H    0.063932
    55  H   -0.007315
    56  H    0.004758
    57  H   -0.014352
    58  H    0.190191
 Sum of Mulliken atomic charges =   0.00000

 Dipole moment (field-independent basis, Debye):
    X=             22.3137    Y=             16.2023    Z=              1.0956  Tot=             27.5974
 Quadrupole moment (field-independent basis, Debye-Ang):
   XX=           -454.2276   YY=           -223.9749   ZZ=           -222.2081
   XY=            -70.6326   XZ=             -6.0066   YZ=            -10.6761

 Normal termination of Gaussian 09 at Fri Mar 20 05:02:35 2015.
