 Gaussian 09, Revision B.01,
 Gaussian 09:  EM64L-G09RevB.01 12-Aug-2010

 ------------------------------------------------------
 # opt=modredundant B3LYP/cc-pVDZ Geom=PrintInputOrient
 ------------------------------------------------------

 -------------------------------
 CY3 Dihedral Scan at MP2/6-31G*
 -------------------------------
 Symbolic Z-matrix:
 Charge =  0 Multiplicity = 1

 SCF Done:  E(RB3LYP) =  -2398.26711824     A.U. after   22 cycles
 SCF Done:  E(RB3LYP) =  -2398.26712603     A.U. after    8 cycles
 Optimization completed.
    -- Stationary point found.
 SCF Done:  E(RB3LYP) =  -2398.26412849     A.U. after   13 cycles
 SCF Done:  E(RB3LYP) =  -2398.26364368     A.U. after   12 cycles
 SCF Done:  E(RB3LYP) =  -2398.26437811     A.U. after   13 cycles
 SCF Done:  E(RB3LYP) =  -2398.26439426     A.U. after   11 cycles
 SCF Done:  E(RB3LYP) =  -2398.26439597     A.U. after    8 cycles
 SCF Done:  E(RB3LYP) =  -2398.26439640     A.U. after    8 cycles
 SCF Done:  E(RB3LYP) =  -2398.26439653     A.U. after    8 cycles
 SCF Done:  E(RB3LYP) =  -2398.26439653     A.U. after    7 cycles
 Optimization completed.
    -- Stationary point found.
 SCF Done:  E(RB3LYP) =  -2398.25591901     A.U. after   13 cycles
 SCF Done:  E(RB3LYP) =  -2398.25592552     A.U. after   11 cycles
 SCF Done:  E(RB3LYP) =  -2398.25592634     A.U. after    8 cycles
 SCF Done:  E(RB3LYP) =  -2398.25592669     A.U. after    8 cycles
 SCF Done:  E(RB3LYP) =  -2398.25592683     A.U. after    8 cycles
 SCF Done:  E(RB3LYP) =  -2398.25592693     A.U. after    7 cycles
 SCF Done:  E(RB3LYP) =  -2398.25592698     A.U. after    7 cycles
 SCF Done:  E(RB3LYP) =  -2398.25592704     A.U. after    7 cycles
 SCF Done:  E(RB3LYP) =  -2398.25592712     A.U. after    8 cycles
 SCF Done:  E(RB3LYP) =  -2398.25592717     A.U. after    8 cycles
 Optimization completed.
    -- Stationary point found.

                         Standard orientation:
 ---------------------------------------------------------------------
 Center     Atomic      Atomic             Coordinates (Angstroms)
 Number     Number       Type             X           Y           Z
 ---------------------------------------------------------------------
      1          6           0       -6.096450    1.156476   -0.157910
      2          6           0       -4.757260    0.794744    0.001449
      3          6           0       -4.334783   -0.543432    0.098179
      4          6           0       -5.265018   -1.567043    0.033399
      5          6           0       -6.620744   -1.225722   -0.106888
      6          6           0       -7.025609    0.114942   -0.212337
      7          6           0       -2.831163   -0.548739    0.241182
      8          6           0       -2.487005    0.922388    0.236289
      9          7           0       -3.614921    1.628253    0.079109
     10          6           0       -3.665857    3.093434   -0.043433
     11          6           0       -2.291351    3.675403   -0.380936
     12          6           0       -1.240929    3.054288    0.548216
     13          6           0       -1.221439    1.549724    0.361593
     14          8           0        0.030179    3.686310    0.467778
     15          6           0        1.064667    3.030790   -0.266884
     16          6           0        1.189701    1.566186    0.112413
     17          6           0       -0.026342    0.863605    0.303448
     18          6           0        2.354550    3.789562    0.040035
     19          6           0        3.574701    3.080686   -0.545287
     20          7           0        3.586418    1.674146   -0.145330
     21          6           0        2.434567    0.979870    0.147189
     22          6           0        2.810535   -0.454379    0.471135
     23          6           0        4.298884   -0.472653    0.212602
     24          6           0        4.708346    0.838457   -0.125144
     25          6           0        6.050238    1.173466   -0.328460
     26          6           0        6.988846    0.130628   -0.318555
     27          6           0        6.534367   -1.179048   -0.145872
     28          6           0        5.268197   -1.441042    0.411993
     29         16           0       -7.881253   -2.568701   -0.110573
     30         16           0        7.737533   -2.506946   -0.192454
     31          8           0       -8.187829   -2.676933    1.354287
     32          8           0       -8.981607   -2.005851   -0.956716
     33          8           0       -7.131278   -3.730543   -0.690681
     34          8           0        8.928411   -2.031401   -0.915730
     35          8           0        8.105994   -2.610368    1.433016
     36          8           0        7.065736   -3.776715   -0.542954
     37          1           0       -6.413270    2.198245   -0.236802
     38          1           0       -4.998671   -2.625236    0.073247
     39          1           0       -8.089668    0.312956   -0.352775
     40          1           0       -2.328390   -1.074171   -0.587836
     41          1           0       -2.487379   -1.022699    1.175981
     42          1           0       -4.049892    3.498493    0.908004
     43          1           0       -4.401888    3.333278   -0.823282
     44          1           0       -2.320213    4.766190   -0.244961
     45          1           0       -2.034652    3.470965   -1.433316
     46          1           0       -1.566642    3.246649    1.588509
     47          1           0        0.840592    3.096403   -1.352189
     48          1           0       -0.024540   -0.229819    0.328082
     49          1           0        2.448957    3.862019    1.135306
     50          1           0        2.298939    4.812755   -0.357993
     51          1           0        4.496720    3.555595   -0.181111
     52          1           0        3.584730    3.140723   -1.649094
     53          1           0        2.261771   -1.167157   -0.166411
     54          1           0        2.563838   -0.704170    1.516447
     55          1           0        6.366771    2.200120   -0.513983
     56          1           0        8.035236    0.313946   -0.563589
     57          1           0        5.009081   -2.456217    0.719687
     58          1           0        8.188873   -3.566872    1.613539
 ---------------------------------------------------------------------

 The electronic state is 1-A.
 Alpha  occ. eigenvalues --  -89.14789 -89.01763 -19.21101 -19.19727 -19.16525
 Alpha  occ. eigenvalues --  -19.16523 -19.02821 -19.02804 -19.02733 -14.45967
 Alpha  occ. eigenvalues --  -14.44640 -10.30995 -10.30786 -10.30011 -10.29957
 Alpha  occ. eigenvalues --  -10.29558 -10.29543 -10.29270 -10.27094 -10.26554
 Alpha  occ. eigenvalues --  -10.26500 -10.26064 -10.25947 -10.25702 -10.25455
 Alpha  occ. eigenvalues --  -10.25435 -10.25370 -10.25345 -10.24945 -10.24887
 Alpha  occ. eigenvalues --  -10.24597 -10.22214 -10.21488 -10.19635 -10.19380
 Alpha  occ. eigenvalues --  -10.18934  -8.17966  -8.04598  -6.14393  -6.14231
 Alpha  occ. eigenvalues --   -6.14090  -6.00928  -6.00901  -6.00892  -1.15655
 Alpha  occ. eigenvalues --   -1.09487  -1.06161  -1.06021  -1.05196  -1.02965
 Alpha  occ. eigenvalues --   -1.01663  -0.92625  -0.89751  -0.89051  -0.88406
 Alpha  occ. eigenvalues --   -0.88133  -0.87764  -0.86851  -0.85218  -0.82480
 Alpha  occ. eigenvalues --   -0.81553  -0.80092  -0.77678  -0.77090  -0.75010
 Alpha  occ. eigenvalues --   -0.74403  -0.73293  -0.71245  -0.68502  -0.67989
 Alpha  occ. eigenvalues --   -0.66460  -0.65239  -0.64550  -0.62519  -0.61651
 Alpha  occ. eigenvalues --   -0.59918  -0.58695  -0.58037  -0.57755  -0.57164
 Alpha  occ. eigenvalues --   -0.55955  -0.55103  -0.54486  -0.54044  -0.53280
 Alpha  occ. eigenvalues --   -0.52542  -0.52413  -0.51447  -0.50792  -0.50056
 Alpha  occ. eigenvalues --   -0.49703  -0.49252  -0.48652  -0.48407  -0.47841
 Alpha  occ. eigenvalues --   -0.47781  -0.46822  -0.46338  -0.45922  -0.45682
 Alpha  occ. eigenvalues --   -0.45202  -0.44820  -0.44595  -0.44239  -0.43970
 Alpha  occ. eigenvalues --   -0.43324  -0.43064  -0.42349  -0.41718  -0.40618
 Alpha  occ. eigenvalues --   -0.40085  -0.40034  -0.39362  -0.38877  -0.38357
 Alpha  occ. eigenvalues --   -0.38039  -0.36769  -0.36356  -0.36118  -0.35900
 Alpha  occ. eigenvalues --   -0.34795  -0.34660  -0.34043  -0.33886  -0.32106
 Alpha  occ. eigenvalues --   -0.31434  -0.31146  -0.30573  -0.27128  -0.26747
 Alpha  occ. eigenvalues --   -0.23968  -0.23694  -0.23535  -0.20895  -0.20657
 Alpha  occ. eigenvalues --   -0.19694  -0.16529
 Alpha virt. eigenvalues --   -0.13692  -0.07886  -0.07422  -0.04644  -0.02115
 Alpha virt. eigenvalues --   -0.00573  -0.00042   0.00203   0.00773   0.00995
 Alpha virt. eigenvalues --    0.02029   0.02947   0.03907   0.04017   0.04781

 Mulliken atomic charges:
              1
     1  C   -0.009150
     2  C    0.223480
     3  C   -0.131230
     4  C    0.043992
     5  C   -0.243048
     6  C    0.109850
     7  C    0.178869
     8  C    0.081240
     9  N   -0.265661
    10  C    0.088497
    11  C    0.047511
    12  C    0.157089
    13  C   -0.118301
    14  O   -0.320287
    15  C    0.130887
    16  C   -0.099780
    17  C    0.009514
    18  C    0.036102
    19  C    0.097251
    20  N   -0.309685
    21  C    0.085179
    22  C    0.179098
    23  C   -0.172557
    24  C    0.264727
    25  C   -0.024097
    26  C    0.119860
    27  C   -0.259242
    28  C    0.069271
    29  S    0.986503
    30  S    0.986882
    31  O   -0.517177
    32  O   -0.520177
    33  O   -0.524917
    34  O   -0.411712
    35  O   -0.328547
    36  O   -0.440640
    37  H   -0.027919
    38  H   -0.024800
    39  H   -0.006136
    40  H    0.081739
    41  H    0.081323
    42  H    0.058214
    43  H    0.061185
    44  H    0.031290
    45  H    0.024694
    46  H    0.026554
    47  H    0.012165
    48  H   -0.026449
    49  H    0.032075
    50  H    0.026738
    51  H    0.048385
    52  H    0.046557
    53  H    0.077783
    54  H    0.080244
    55  H   -0.011297
    56  H    0.017197
    57  H    0.000081
    58  H    0.190780
 Sum of Mulliken atomic charges =   0.00000

 Dipole moment (field-independent basis, Debye):
    X=             22.8751    Y=             17.0912    Z=              1.7104  Tot=             28.6060
 Quadrupole moment (field-independent basis, Debye-Ang):
   XX=           -436.4456   YY=           -227.1758   ZZ=           -225.8086
   XY=            -76.9344   XZ=             11.3824   YZ=            -15.5931

 Normal termination of Gaussian 09 at Sat Mar 21 20:59:30 2015.
