 Gaussian 09, Revision B.01,
 Gaussian 09:  EM64L-G09RevB.01 12-Aug-2010

 ------------------------------------------------------
 # opt=modredundant B3LYP/cc-pVDZ Geom=PrintInputOrient
 ------------------------------------------------------

 -------------------------------
 CY3 Dihedral Scan at MP2/6-31G*
 -------------------------------
 Symbolic Z-matrix:
 Charge =  0 Multiplicity = 1

 SCF Done:  E(RB3LYP) =  -2398.26711824     A.U. after   22 cycles
 SCF Done:  E(RB3LYP) =  -2398.26712605     A.U. after    8 cycles
 Optimization completed.
    -- Stationary point found.
 SCF Done:  E(RB3LYP) =  -2398.26369186     A.U. after   17 cycles
 SCF Done:  E(RB3LYP) =  -2398.26358435     A.U. after   12 cycles
 SCF Done:  E(RB3LYP) =  -2398.26529612     A.U. after   13 cycles
 SCF Done:  E(RB3LYP) =  -2398.26546734     A.U. after   11 cycles
 SCF Done:  E(RB3LYP) =  -2398.26549033     A.U. after   11 cycles
 SCF Done:  E(RB3LYP) =  -2398.26549915     A.U. after   11 cycles
 SCF Done:  E(RB3LYP) =  -2398.26550471     A.U. after   11 cycles
 SCF Done:  E(RB3LYP) =  -2398.26550853     A.U. after   11 cycles
 Optimization completed.
    -- Stationary point found.
 SCF Done:  E(RB3LYP) =  -2398.26298756     A.U. after   13 cycles
 SCF Done:  E(RB3LYP) =  -2398.26302204     A.U. after   13 cycles
 SCF Done:  E(RB3LYP) =  -2398.26304884     A.U. after   13 cycles
 SCF Done:  E(RB3LYP) =  -2398.26328563     A.U. after   13 cycles
 SCF Done:  E(RB3LYP) =  -2398.26328820     A.U. after   11 cycles
 SCF Done:  E(RB3LYP) =  -2398.26329293     A.U. after   12 cycles
 SCF Done:  E(RB3LYP) =  -2398.26329231     A.U. after   11 cycles
 SCF Done:  E(RB3LYP) =  -2398.26329241     A.U. after   11 cycles
 SCF Done:  E(RB3LYP) =  -2398.26329324     A.U. after   11 cycles
 SCF Done:  E(RB3LYP) =  -2398.26329332     A.U. after    7 cycles
 Optimization completed.
    -- Stationary point found.

                         Standard orientation:
 ---------------------------------------------------------------------
 Center     Atomic      Atomic             Coordinates (Angstroms)
 Number     Number       Type             X           Y           Z
 ---------------------------------------------------------------------
      1          6           0       -6.032971    1.042446    0.868697
      2          6           0       -4.732491    0.705605    0.485637
      3          6           0       -4.414421   -0.515815   -0.137162
      4          6           0       -5.412256   -1.442748   -0.389492
      5          6           0       -6.724466   -1.131142    0.002500
      6          6           0       -7.028739    0.098848    0.609883
      7          6           0       -2.933552   -0.517680   -0.431208
      8          6           0       -2.468437    0.788935    0.168073
      9          7           0       -3.540145    1.455108    0.618341
     10          6           0       -3.451577    2.836944    1.104200
     11          6           0       -2.391802    3.594465    0.304703
     12          6           0       -1.045574    2.881334    0.385615
     13          6           0       -1.185689    1.387013    0.128672
     14          8           0       -0.177096    3.495921   -0.563161
     15          6           0        1.099665    2.897596   -0.767813
     16          6           0        1.175223    1.424188   -0.395894
     17          6           0       -0.029944    0.703648   -0.189573
     18          6           0        2.236966    3.670817   -0.088081
     19          6           0        3.583485    3.079754   -0.516452
     20          7           0        3.578720    1.619603   -0.384808
     21          6           0        2.429824    0.866976   -0.283852
     22          6           0        2.824046   -0.576829   -0.033464
     23          6           0        4.334384   -0.518678   -0.067346
     24          6           0        4.722491    0.819952   -0.279010
     25          6           0        6.061677    1.202110   -0.371165
     26          6           0        7.031389    0.201716   -0.235592
     27          6           0        6.642643   -1.119829   -0.010057
     28          6           0        5.293609   -1.506567    0.067385
     29         16           0       -8.052701   -2.381426   -0.250487
     30         16           0        7.907372   -2.378061    0.139730
     31          8           0       -8.057624   -3.065711    1.085015
     32          8           0       -9.259848   -1.544675   -0.544138
     33          8           0       -7.528841   -3.205996   -1.388234
     34          8           0        9.173074   -1.849083   -0.394379
     35          8           0        8.017913   -2.432997    1.802320
     36          8           0        7.368665   -3.688189   -0.285508
     37          1           0       -6.270933    1.992709    1.350738
     38          1           0       -5.236247   -2.397098   -0.890154
     39          1           0       -8.071790    0.297443    0.862048
     40          1           0       -2.713146   -0.517288   -1.512033
     41          1           0       -2.405265   -1.385176   -0.000491
     42          1           0       -3.216939    2.820486    2.182487
     43          1           0       -4.438958    3.298827    0.983038
     44          1           0       -2.303516    4.622185    0.684381
     45          1           0       -2.694519    3.652235   -0.753421
     46          1           0       -0.626544    3.018034    1.405225
     47          1           0        1.251731    2.969401   -1.861238
     48          1           0       -0.030586   -0.388875   -0.247680
     49          1           0        2.125343    3.614155    1.007043
     50          1           0        2.200774    4.730822   -0.378054
     51          1           0        4.395869    3.478430    0.109590
     52          1           0        3.813687    3.344465   -1.563733
     53          1           0        2.407005   -1.241298   -0.808477
     54          1           0        2.442458   -0.936626    0.936214
     55          1           0        6.356617    2.235043   -0.557543
     56          1           0        8.092343    0.439249   -0.315737
     57          1           0        5.032084   -2.554938    0.217041
     58          1           0        8.154923   -3.375890    2.017617
 ---------------------------------------------------------------------

 The electronic state is 1-A.
 Alpha  occ. eigenvalues --  -89.15018 -89.01751 -19.21197 -19.19703 -19.16742
 Alpha  occ. eigenvalues --  -19.16643 -19.02821 -19.02787 -19.02732 -14.45690
 Alpha  occ. eigenvalues --  -14.44735 -10.30828 -10.30694 -10.29947 -10.29934
 Alpha  occ. eigenvalues --  -10.29658 -10.29550 -10.29130 -10.27087 -10.26635
 Alpha  occ. eigenvalues --  -10.26399 -10.26034 -10.25871 -10.25674 -10.25483
 Alpha  occ. eigenvalues --  -10.25448 -10.25241 -10.25079 -10.24978 -10.24783
 Alpha  occ. eigenvalues --  -10.24772 -10.22146 -10.21445 -10.19541 -10.19411
 Alpha  occ. eigenvalues --  -10.18913  -8.18181  -8.04587  -6.14605  -6.14449
 Alpha  occ. eigenvalues --   -6.14310  -6.00917  -6.00890  -6.00881  -1.15850
 Alpha  occ. eigenvalues --   -1.09469  -1.06098  -1.06015  -1.05340  -1.03140
 Alpha  occ. eigenvalues --   -1.01653  -0.92607  -0.89599  -0.89011  -0.88394
 Alpha  occ. eigenvalues --   -0.88126  -0.87765  -0.86701  -0.85152  -0.82523
 Alpha  occ. eigenvalues --   -0.81579  -0.80060  -0.77522  -0.77243  -0.74885
 Alpha  occ. eigenvalues --   -0.74387  -0.73244  -0.71319  -0.68332  -0.67995
 Alpha  occ. eigenvalues --   -0.66334  -0.65372  -0.64724  -0.62679  -0.61736
 Alpha  occ. eigenvalues --   -0.59671  -0.58703  -0.57994  -0.57675  -0.57147
 Alpha  occ. eigenvalues --   -0.55944  -0.55158  -0.54585  -0.54193  -0.53335
 Alpha  occ. eigenvalues --   -0.52469  -0.52215  -0.51378  -0.50926  -0.50307
 Alpha  occ. eigenvalues --   -0.49534  -0.49099  -0.48757  -0.48213  -0.47869
 Alpha  occ. eigenvalues --   -0.47613  -0.46899  -0.46694  -0.45934  -0.45561
 Alpha  occ. eigenvalues --   -0.45042  -0.44971  -0.44443  -0.44149  -0.43839
 Alpha  occ. eigenvalues --   -0.43726  -0.42829  -0.42302  -0.41282  -0.40725
 Alpha  occ. eigenvalues --   -0.40028  -0.39926  -0.39530  -0.38918  -0.38405
 Alpha  occ. eigenvalues --   -0.37952  -0.36570  -0.36343  -0.36252  -0.35885
 Alpha  occ. eigenvalues --   -0.35170  -0.34739  -0.34207  -0.34083  -0.32106
 Alpha  occ. eigenvalues --   -0.31451  -0.31259  -0.30673  -0.27144  -0.26699
 Alpha  occ. eigenvalues --   -0.23961  -0.23690  -0.23498  -0.20909  -0.20613
 Alpha  occ. eigenvalues --   -0.19662  -0.16520
 Alpha virt. eigenvalues --   -0.13704  -0.07554  -0.07251  -0.04782  -0.02164
 Alpha virt. eigenvalues --   -0.00554   0.00022   0.00333   0.00832   0.01106
 Alpha virt. eigenvalues --    0.01892   0.02912   0.03405   0.04014   0.04808

 Mulliken atomic charges:
              1
     1  C   -0.007359
     2  C    0.217357
     3  C   -0.133206
     4  C    0.039678
     5  C   -0.243078
     6  C    0.115846
     7  C    0.179916
     8  C    0.085194
     9  N   -0.255118
    10  C    0.100986
    11  C    0.030294
    12  C    0.137582
    13  C   -0.097212
    14  O   -0.316664
    15  C    0.160216
    16  C   -0.147695
    17  C    0.021984
    18  C    0.048078
    19  C    0.091159
    20  N   -0.316122
    21  C    0.078985
    22  C    0.184316
    23  C   -0.153825
    24  C    0.267352
    25  C   -0.009297
    26  C    0.108404
    27  C   -0.251786
    28  C    0.050945
    29  S    0.986358
    30  S    0.994451
    31  O   -0.516970
    32  O   -0.519937
    33  O   -0.524308
    34  O   -0.410693
    35  O   -0.325225
    36  O   -0.437343
    37  H   -0.024460
    38  H   -0.023995
    39  H   -0.006468
    40  H    0.085948
    41  H    0.074678
    42  H    0.053489
    43  H    0.058273
    44  H    0.028892
    45  H    0.038793
    46  H    0.011124
    47  H    0.022565
    48  H   -0.025348
    49  H    0.021622
    50  H    0.029095
    51  H    0.047144
    52  H    0.046784
    53  H    0.080274
    54  H    0.078070
    55  H   -0.010833
    56  H    0.005519
    57  H   -0.014871
    58  H    0.190442
 Sum of Mulliken atomic charges =   0.00000

 Dipole moment (field-independent basis, Debye):
    X=             23.7819    Y=             15.8786    Z=              3.3228  Tot=             28.7880
 Quadrupole moment (field-independent basis, Debye-Ang):
   XX=           -452.6772   YY=           -224.6623   ZZ=           -222.2220
   XY=            -69.4055   XZ=             -4.5726   YZ=             -4.6279

 Normal termination of Gaussian 09 at Wed Mar 18 02:05:27 2015.
