 Gaussian 09, Revision B.01,
 Gaussian 09:  EM64L-G09RevB.01 12-Aug-2010

 ------------------------------------------------------
 # opt=modredundant B3LYP/cc-pVDZ Geom=PrintInputOrient
 ------------------------------------------------------

 -------------------------------
 CY3 Dihedral Scan at MP2/6-31G*
 -------------------------------
 Symbolic Z-matrix:
 Charge =  0 Multiplicity = 1

 SCF Done:  E(RB3LYP) =  -2398.26711824     A.U. after   22 cycles
 SCF Done:  E(RB3LYP) =  -2398.26712605     A.U. after    8 cycles
 Optimization completed.
    -- Stationary point found.
 SCF Done:  E(RB3LYP) =  -2398.26013360     A.U. after   13 cycles
 SCF Done:  E(RB3LYP) =  -2398.26285932     A.U. after   13 cycles
 SCF Done:  E(RB3LYP) =  -2398.26377265     A.U. after   12 cycles
 SCF Done:  E(RB3LYP) =  -2398.26383023     A.U. after   11 cycles
 SCF Done:  E(RB3LYP) =  -2398.26383429     A.U. after   11 cycles
 SCF Done:  E(RB3LYP) =  -2398.26383512     A.U. after    8 cycles
 SCF Done:  E(RB3LYP) =  -2398.26383541     A.U. after    8 cycles
 SCF Done:  E(RB3LYP) =  -2398.26383556     A.U. after    7 cycles
 Optimization completed.
    -- Stationary point found.
 SCF Done:  E(RB3LYP) =  -2398.24772631     A.U. after   17 cycles
 SCF Done:  E(RB3LYP) =  -2398.25248051     A.U. after   13 cycles
 SCF Done:  E(RB3LYP) =  -2398.25282840     A.U. after   13 cycles
 SCF Done:  E(RB3LYP) =  -2398.25284839     A.U. after   11 cycles
 SCF Done:  E(RB3LYP) =  -2398.25285403     A.U. after   11 cycles
 SCF Done:  E(RB3LYP) =  -2398.25285526     A.U. after    8 cycles
 SCF Done:  E(RB3LYP) =  -2398.25285578     A.U. after    8 cycles
 SCF Done:  E(RB3LYP) =  -2398.25285582     A.U. after    8 cycles
 Optimization completed.
    -- Stationary point found.

                         Standard orientation:
 ---------------------------------------------------------------------
 Center     Atomic      Atomic             Coordinates (Angstroms)
 Number     Number       Type             X           Y           Z
 ---------------------------------------------------------------------
      1          6           0       -6.129669    1.150126   -0.391648
      2          6           0       -4.783213    0.796648   -0.374011
      3          6           0       -4.336648   -0.532512   -0.209497
      4          6           0       -5.256730   -1.557935   -0.112870
      5          6           0       -6.626256   -1.221310   -0.093620
      6          6           0       -7.052016    0.102264   -0.271505
      7          6           0       -2.864543   -0.502120   -0.569600
      8          6           0       -2.500758    0.901067   -0.144609
      9          7           0       -3.631411    1.630220   -0.233159
     10          6           0       -3.685713    3.090703   -0.090776
     11          6           0       -2.296830    3.716525   -0.243912
     12          6           0       -1.292833    2.933749    0.613362
     13          6           0       -1.252627    1.487262    0.157520
     14          8           0       -0.022319    3.565871    0.713064
     15          6           0        1.055347    3.045811   -0.065804
     16          6           0        1.167099    1.536130    0.052512
     17          6           0       -0.050708    0.815470    0.046112
     18          6           0        2.321691    3.732733    0.443106
     19          6           0        3.577416    3.132065   -0.186826
     20          7           0        3.573338    1.677232   -0.038998
     21          6           0        2.412521    0.946865    0.056172
     22          6           0        2.778956   -0.522510    0.144999
     23          6           0        4.286553   -0.495706    0.036683
     24          6           0        4.699774    0.847621   -0.075940
     25          6           0        6.041738    1.205015   -0.214295
     26          6           0        6.988876    0.174461   -0.223090
     27          6           0        6.576542   -1.152821   -0.092892
     28          6           0        5.223521   -1.513691    0.026215
     29         16           0       -7.860176   -2.560003    0.176086
     30         16           0        7.812491   -2.447775   -0.127302
     31          8           0       -7.893716   -2.624571    1.674697
     32          8           0       -9.099588   -2.026239   -0.473987
     33          8           0       -7.219975   -3.739481   -0.494139
     34          8           0        9.062746   -1.898391   -0.676879
     35          8           0        8.006922   -2.662565    1.513998
     36          8           0        7.216942   -3.699414   -0.643372
     37          1           0       -6.462205    2.185879   -0.486645
     38          1           0       -4.980729   -2.612806   -0.055463
     39          1           0       -8.127326    0.286822   -0.301463
     40          1           0       -2.749098   -0.582707   -1.665068
     41          1           0       -2.242858   -1.277851   -0.100793
     42          1           0       -4.122671    3.320852    0.896074
     43          1           0       -4.379589    3.474782   -0.852413
     44          1           0       -2.336543    4.765311    0.084231
     45          1           0       -1.981948    3.703549   -1.300431
     46          1           0       -1.672746    2.935617    1.652647
     47          1           0        0.893328    3.303217   -1.133604
     48          1           0       -0.046915   -0.265674   -0.118440
     49          1           0        2.353315    3.611425    1.537637
     50          1           0        2.283001    4.810158    0.228509
     51          1           0        4.475592    3.529442    0.307064
     52          1           0        3.649558    3.385304   -1.260567
     53          1           0        2.306255   -1.102606   -0.665254
     54          1           0        2.434135   -0.961382    1.095556
     55          1           0        6.355862    2.243161   -0.324773
     56          1           0        8.050098    0.393796   -0.341951
     57          1           0        4.940660   -2.565064    0.093608
     58          1           0        8.113261   -3.626083    1.634316
 ---------------------------------------------------------------------

 The electronic state is 1-A.
 Alpha  occ. eigenvalues --  -89.15003 -89.01799 -19.21171 -19.19678 -19.16722
 Alpha  occ. eigenvalues --  -19.16626 -19.02874 -19.02867 -19.02770 -14.45363
 Alpha  occ. eigenvalues --  -14.44769 -10.30906 -10.30731 -10.29984 -10.29909
 Alpha  occ. eigenvalues --  -10.29639 -10.29591 -10.28978 -10.27085 -10.26623
 Alpha  occ. eigenvalues --  -10.26532 -10.26036 -10.25866 -10.25665 -10.25457
 Alpha  occ. eigenvalues --  -10.25419 -10.25269 -10.25171 -10.24974 -10.24744
 Alpha  occ. eigenvalues --  -10.24654 -10.21923 -10.21574 -10.19716 -10.19308
 Alpha  occ. eigenvalues --  -10.18996  -8.18165  -8.04635  -6.14588  -6.14432
 Alpha  occ. eigenvalues --   -6.14293  -6.00965  -6.00939  -6.00930  -1.15836
 Alpha  occ. eigenvalues --   -1.09426  -1.06178  -1.05555  -1.05321  -1.03123
 Alpha  occ. eigenvalues --   -1.01704  -0.92623  -0.89678  -0.88985  -0.88452
 Alpha  occ. eigenvalues --   -0.88168  -0.87797  -0.86735  -0.85045  -0.82520
 Alpha  occ. eigenvalues --   -0.81657  -0.79954  -0.77598  -0.76962  -0.74968
 Alpha  occ. eigenvalues --   -0.74316  -0.73152  -0.71333  -0.68376  -0.68043
 Alpha  occ. eigenvalues --   -0.66399  -0.65195  -0.64703  -0.62330  -0.61525
 Alpha  occ. eigenvalues --   -0.59877  -0.58732  -0.57962  -0.57711  -0.57084
 Alpha  occ. eigenvalues --   -0.55820  -0.55088  -0.54495  -0.54187  -0.53249
 Alpha  occ. eigenvalues --   -0.52671  -0.52175  -0.51389  -0.50771  -0.50161
 Alpha  occ. eigenvalues --   -0.49561  -0.49197  -0.48766  -0.48316  -0.47836
 Alpha  occ. eigenvalues --   -0.47637  -0.46792  -0.46327  -0.45841  -0.45766
 Alpha  occ. eigenvalues --   -0.45387  -0.44927  -0.44546  -0.43983  -0.43772
 Alpha  occ. eigenvalues --   -0.43328  -0.43044  -0.42062  -0.41563  -0.40688
 Alpha  occ. eigenvalues --   -0.39977  -0.39846  -0.39294  -0.38990  -0.38523
 Alpha  occ. eigenvalues --   -0.37761  -0.36609  -0.36326  -0.36243  -0.35686
 Alpha  occ. eigenvalues --   -0.34823  -0.34572  -0.34187  -0.34098  -0.32114
 Alpha  occ. eigenvalues --   -0.31451  -0.31363  -0.30639  -0.27216  -0.26593
 Alpha  occ. eigenvalues --   -0.23972  -0.23732  -0.23548  -0.20939  -0.20687
 Alpha  occ. eigenvalues --   -0.19696  -0.16571
 Alpha virt. eigenvalues --   -0.13799  -0.07490  -0.07258  -0.04713  -0.02115
 Alpha virt. eigenvalues --   -0.01190  -0.00032   0.00320   0.00827   0.01018
 Alpha virt. eigenvalues --    0.02035   0.02962   0.03887   0.04240   0.04889

 Mulliken atomic charges:
              1
     1  C   -0.001941
     2  C    0.184776
     3  C   -0.094577
     4  C    0.059451
     5  C   -0.243737
     6  C    0.101796
     7  C    0.117821
     8  C    0.128283
     9  N   -0.260774
    10  C    0.090839
    11  C    0.044247
    12  C    0.156692
    13  C   -0.112983
    14  O   -0.320569
    15  C    0.131594
    16  C   -0.101772
    17  C    0.014757
    18  C    0.037926
    19  C    0.095425
    20  N   -0.313485
    21  C    0.083984
    22  C    0.186485
    23  C   -0.155219
    24  C    0.267942
    25  C   -0.009975
    26  C    0.109000
    27  C   -0.251696
    28  C    0.050980
    29  S    0.987506
    30  S    0.994461
    31  O   -0.516795
    32  O   -0.518954
    33  O   -0.524364
    34  O   -0.410718
    35  O   -0.324536
    36  O   -0.437533
    37  H   -0.025889
    38  H   -0.016521
    39  H   -0.004378
    40  H    0.086201
    41  H    0.047115
    42  H    0.057758
    43  H    0.057484
    44  H    0.031278
    45  H    0.021858
    46  H    0.029956
    47  H    0.011211
    48  H   -0.027812
    49  H    0.033231
    50  H    0.026968
    51  H    0.048705
    52  H    0.045809
    53  H    0.079471
    54  H    0.081947
    55  H   -0.010451
    56  H    0.005513
    57  H   -0.014563
    58  H    0.190771
 Sum of Mulliken atomic charges =   0.00000

 Dipole moment (field-independent basis, Debye):
    X=             22.7869    Y=             16.8963    Z=             -0.6931  Tot=             28.3762
 Quadrupole moment (field-independent basis, Debye-Ang):
   XX=           -435.4074   YY=           -224.2250   ZZ=           -226.7661
   XY=            -76.9498   XZ=             23.0164   YZ=             -9.2725

 Normal termination of Gaussian 09 at Sat Mar 21 12:35:35 2015.
