 Gaussian 09, Revision B.01,
 Gaussian 09:  EM64L-G09RevB.01 12-Aug-2010

 ------------------------------------------------------
 # opt=modredundant B3LYP/cc-pVDZ Geom=PrintInputOrient
 ------------------------------------------------------

 -------------------------------
 CY3 Dihedral Scan at MP2/6-31G*
 -------------------------------
 Symbolic Z-matrix:
 Charge =  0 Multiplicity = 1

 SCF Done:  E(RB3LYP) =  -2398.26711824     A.U. after   22 cycles
 SCF Done:  E(RB3LYP) =  -2398.26712608     A.U. after    8 cycles
 Optimization completed.
    -- Stationary point found.
 SCF Done:  E(RB3LYP) =  -2398.26419528     A.U. after   13 cycles
 SCF Done:  E(RB3LYP) =  -2398.26400460     A.U. after   12 cycles
 SCF Done:  E(RB3LYP) =  -2398.26486151     A.U. after   12 cycles
 SCF Done:  E(RB3LYP) =  -2398.26490263     A.U. after   11 cycles
 SCF Done:  E(RB3LYP) =  -2398.26491494     A.U. after   11 cycles
 SCF Done:  E(RB3LYP) =  -2398.26491743     A.U. after   10 cycles
 SCF Done:  E(RB3LYP) =  -2398.26491795     A.U. after    8 cycles
 SCF Done:  E(RB3LYP) =  -2398.26491814     A.U. after    7 cycles
 SCF Done:  E(RB3LYP) =  -2398.26492005     A.U. after   10 cycles
 SCF Done:  E(RB3LYP) =  -2398.26492016     A.U. after    7 cycles
 Optimization completed.
    -- Stationary point found.
 SCF Done:  E(RB3LYP) =  -2398.25734594     A.U. after   13 cycles
 SCF Done:  E(RB3LYP) =  -2398.25732289     A.U. after   11 cycles
 SCF Done:  E(RB3LYP) =  -2398.25832069     A.U. after   12 cycles
 SCF Done:  E(RB3LYP) =  -2398.25833896     A.U. after   10 cycles
 SCF Done:  E(RB3LYP) =  -2398.25834046     A.U. after    8 cycles
 SCF Done:  E(RB3LYP) =  -2398.25834072     A.U. after    8 cycles
 SCF Done:  E(RB3LYP) =  -2398.25834074     A.U. after    8 cycles
 SCF Done:  E(RB3LYP) =  -2398.25834071     A.U. after    8 cycles
 Optimization completed.
    -- Stationary point found.

                         Standard orientation:
 ---------------------------------------------------------------------
 Center     Atomic      Atomic             Coordinates (Angstroms)
 Number     Number       Type             X           Y           Z
 ---------------------------------------------------------------------
      1          6           0       -6.103053    1.178322    0.042031
      2          6           0       -4.761029    0.797646    0.107973
      3          6           0       -4.347180   -0.545705    0.069390
      4          6           0       -5.288957   -1.555529   -0.038334
      5          6           0       -6.646264   -1.196889   -0.085814
      6          6           0       -7.043018    0.150315   -0.058415
      7          6           0       -2.838616   -0.571478    0.139569
      8          6           0       -2.481072    0.892797    0.243959
      9          7           0       -3.608495    1.615497    0.203386
     10          6           0       -3.650921    3.085915    0.212233
     11          6           0       -2.289005    3.687409   -0.141837
     12          6           0       -1.199517    2.982375    0.675885
     13          6           0       -1.204806    1.499871    0.359670
     14          8           0        0.072020    3.612132    0.584762
     15          6           0        1.064924    3.016496   -0.251429
     16          6           0        1.190555    1.522635   -0.011417
     17          6           0       -0.021572    0.814112    0.180277
     18          6           0        2.375818    3.734673    0.065128
     19          6           0        3.560976    3.076198   -0.639171
     20          7           0        3.572007    1.637097   -0.381023
     21          6           0        2.430324    0.929174   -0.090739
     22          6           0        2.817230   -0.521155    0.111809
     23          6           0        4.264269   -0.552501   -0.341711
     24          6           0        4.684706    0.791799   -0.468289
     25          6           0        6.032613    1.157327   -0.532838
     26          6           0        6.986353    0.154225   -0.339912
     27          6           0        6.573394   -1.167239   -0.147136
     28          6           0        5.228128   -1.548088   -0.248275
     29         16           0       -7.919240   -2.527130   -0.143668
     30         16           0        7.816730   -2.438155    0.067543
     31          8           0       -8.218832   -2.699929    1.316295
     32          8           0       -9.018979   -1.913833   -0.954835
     33          8           0       -7.185687   -3.668055   -0.783484
     34          8           0        9.136751   -1.883223   -0.276349
     35          8           0        7.717164   -2.585976    1.725572
     36          8           0        7.342549   -3.719333   -0.497509
     37          1           0       -6.414178    2.224508    0.066763
     38          1           0       -5.032176   -2.615075   -0.100109
     39          1           0       -8.109980    0.367344   -0.132750
     40          1           0       -2.380393   -1.026828   -0.754141
     41          1           0       -2.455625   -1.125343    1.013226
     42          1           0       -3.983405    3.407952    1.213527
     43          1           0       -4.422128    3.397848   -0.505667
     44          1           0       -2.300448    4.762433    0.089146
     45          1           0       -2.086782    3.573557   -1.219482
     46          1           0       -1.470033    3.086350    1.744210
     47          1           0        0.794584    3.181123   -1.315484
     48          1           0       -0.030055   -0.277293    0.110573
     49          1           0        2.519890    3.704170    1.156980
     50          1           0        2.313092    4.790918   -0.233007
     51          1           0        4.503586    3.506012   -0.271364
     52          1           0        3.523749    3.245307   -1.730878
     53          1           0        2.144364   -1.204075   -0.431614
     54          1           0        2.755289   -0.792393    1.179485
     55          1           0        6.344549    2.193452   -0.666466
     56          1           0        8.051017    0.388542   -0.330641
     57          1           0        4.953790   -2.597403   -0.123641
     58          1           0        7.911310   -3.525205    1.911524
 ---------------------------------------------------------------------

 The electronic state is 1-A.
 Alpha  occ. eigenvalues --  -89.15023 -89.01733 -19.21226 -19.19703 -19.16727
 Alpha  occ. eigenvalues --  -19.16646 -19.02798 -19.02765 -19.02695 -14.45923
 Alpha  occ. eigenvalues --  -14.44546 -10.30964 -10.30731 -10.29984 -10.29945
 Alpha  occ. eigenvalues --  -10.29542 -10.29510 -10.29240 -10.27134 -10.26652
 Alpha  occ. eigenvalues --  -10.26480 -10.26009 -10.25924 -10.25702 -10.25420
 Alpha  occ. eigenvalues --  -10.25413 -10.25384 -10.25341 -10.24927 -10.24860
 Alpha  occ. eigenvalues --  -10.24593 -10.22181 -10.21452 -10.19568 -10.19380
 Alpha  occ. eigenvalues --  -10.18898  -8.18187  -8.04568  -6.14610  -6.14452
 Alpha  occ. eigenvalues --   -6.14318  -6.00898  -6.00871  -6.00862  -1.15840
 Alpha  occ. eigenvalues --   -1.09456  -1.06128  -1.06014  -1.05358  -1.03120
 Alpha  occ. eigenvalues --   -1.01631  -0.92563  -0.89720  -0.89018  -0.88370
 Alpha  occ. eigenvalues --   -0.88105  -0.87757  -0.86816  -0.85189  -0.82504
 Alpha  occ. eigenvalues --   -0.81609  -0.80084  -0.77640  -0.77061  -0.74977
 Alpha  occ. eigenvalues --   -0.74398  -0.73302  -0.71357  -0.68499  -0.67977
 Alpha  occ. eigenvalues --   -0.66474  -0.65251  -0.64741  -0.62499  -0.61617
 Alpha  occ. eigenvalues --   -0.59890  -0.58719  -0.57969  -0.57676  -0.57160
 Alpha  occ. eigenvalues --   -0.55910  -0.55094  -0.54610  -0.54269  -0.53165
 Alpha  occ. eigenvalues --   -0.52566  -0.52361  -0.51373  -0.50788  -0.50101
 Alpha  occ. eigenvalues --   -0.49754  -0.49258  -0.48676  -0.48420  -0.47802
 Alpha  occ. eigenvalues --   -0.47732  -0.46885  -0.46360  -0.45887  -0.45802
 Alpha  occ. eigenvalues --   -0.45190  -0.44750  -0.44607  -0.44278  -0.43930
 Alpha  occ. eigenvalues --   -0.43243  -0.43038  -0.42286  -0.41546  -0.40549
 Alpha  occ. eigenvalues --   -0.40050  -0.39948  -0.39362  -0.38991  -0.38338
 Alpha  occ. eigenvalues --   -0.38069  -0.36767  -0.36337  -0.36261  -0.35881
 Alpha  occ. eigenvalues --   -0.34930  -0.34720  -0.34269  -0.34170  -0.31989
 Alpha  occ. eigenvalues --   -0.31389  -0.31216  -0.30604  -0.27112  -0.26716
 Alpha  occ. eigenvalues --   -0.23959  -0.23665  -0.23503  -0.20882  -0.20611
 Alpha  occ. eigenvalues --   -0.19662  -0.16498
 Alpha virt. eigenvalues --   -0.13622  -0.07777  -0.07530  -0.04553  -0.02075
 Alpha virt. eigenvalues --   -0.00547  -0.00136   0.00197   0.00770   0.00991
 Alpha virt. eigenvalues --    0.02029   0.02759   0.03945   0.04145   0.04898

 Mulliken atomic charges:
              1
     1  C   -0.009925
     2  C    0.223281
     3  C   -0.129867
     4  C    0.040936
     5  C   -0.243256
     6  C    0.112542
     7  C    0.178447
     8  C    0.081603
     9  N   -0.265919
    10  C    0.088634
    11  C    0.047191
    12  C    0.157378
    13  C   -0.120296
    14  O   -0.320690
    15  C    0.133069
    16  C   -0.098388
    17  C    0.010806
    18  C    0.033163
    19  C    0.098965
    20  N   -0.305974
    21  C    0.097666
    22  C    0.154417
    23  C   -0.144434
    24  C    0.247100
    25  C   -0.005345
    26  C    0.105103
    27  C   -0.251386
    28  C    0.062250
    29  S    0.986210
    30  S    0.992852
    31  O   -0.517208
    32  O   -0.520429
    33  O   -0.525075
    34  O   -0.411287
    35  O   -0.325012
    36  O   -0.433272
    37  H   -0.028002
    38  H   -0.024858
    39  H   -0.006451
    40  H    0.081607
    41  H    0.081387
    42  H    0.058149
    43  H    0.061012
    44  H    0.031173
    45  H    0.024590
    46  H    0.026502
    47  H    0.012264
    48  H   -0.028504
    49  H    0.031883
    50  H    0.026778
    51  H    0.047399
    52  H    0.046431
    53  H    0.066998
    54  H    0.085688
    55  H   -0.008609
    56  H    0.007962
    57  H   -0.007228
    58  H    0.189981
 Sum of Mulliken atomic charges =   0.00000

 Dipole moment (field-independent basis, Debye):
    X=             22.9335    Y=             16.7166    Z=              1.3793  Tot=             28.4129
 Quadrupole moment (field-independent basis, Debye-Ang):
   XX=           -443.2384   YY=           -224.8204   ZZ=           -225.3123
   XY=            -76.3014   XZ=              4.3572   YZ=            -13.3383

 Normal termination of Gaussian 09 at Sat Mar 21 21:52:05 2015.
