 Gaussian 09, Revision B.01,
 Gaussian 09:  EM64L-G09RevB.01 12-Aug-2010

 ------------------------------------------------------
 # opt=modredundant B3LYP/cc-pVDZ Geom=PrintInputOrient
 ------------------------------------------------------

 -------------------------------
 CY3 Dihedral Scan at MP2/6-31G*
 -------------------------------
 Symbolic Z-matrix:
 Charge =  0 Multiplicity = 1

 SCF Done:  E(RB3LYP) =  -2398.26711824     A.U. after   22 cycles
 SCF Done:  E(RB3LYP) =  -2398.26712608     A.U. after    8 cycles
 Optimization completed.
    -- Stationary point found.
 SCF Done:  E(RB3LYP) =  -2398.25899441     A.U. after   13 cycles
 SCF Done:  E(RB3LYP) =  -2398.26446196     A.U. after   12 cycles
 SCF Done:  E(RB3LYP) =  -2398.26530984     A.U. after   12 cycles
 SCF Done:  E(RB3LYP) =  -2398.26534759     A.U. after   11 cycles
 SCF Done:  E(RB3LYP) =  -2398.26535480     A.U. after   11 cycles
 SCF Done:  E(RB3LYP) =  -2398.26535717     A.U. after   10 cycles
 SCF Done:  E(RB3LYP) =  -2398.26535794     A.U. after    8 cycles
 SCF Done:  E(RB3LYP) =  -2398.26535814     A.U. after    8 cycles
 Optimization completed.
    -- Stationary point found.
 SCF Done:  E(RB3LYP) =  -2398.25602458     A.U. after   13 cycles
 SCF Done:  E(RB3LYP) =  -2398.26104041     A.U. after   12 cycles
 SCF Done:  E(RB3LYP) =  -2398.26173127     A.U. after   11 cycles
 SCF Done:  E(RB3LYP) =  -2398.26175659     A.U. after   10 cycles
 SCF Done:  E(RB3LYP) =  -2398.26175980     A.U. after    8 cycles
 SCF Done:  E(RB3LYP) =  -2398.26176021     A.U. after    7 cycles
 SCF Done:  E(RB3LYP) =  -2398.26176050     A.U. after    8 cycles
 SCF Done:  E(RB3LYP) =  -2398.26176056     A.U. after    8 cycles
 SCF Done:  E(RB3LYP) =  -2398.26176059     A.U. after    7 cycles
 SCF Done:  E(RB3LYP) =  -2398.26176060     A.U. after    6 cycles
 Optimization completed.
    -- Stationary point found.

                         Standard orientation:
 ---------------------------------------------------------------------
 Center     Atomic      Atomic             Coordinates (Angstroms)
 Number     Number       Type             X           Y           Z
 ---------------------------------------------------------------------
      1          6           0       -6.097460    1.150906   -0.190489
      2          6           0       -4.759663    0.795042   -0.008951
      3          6           0       -4.336118   -0.540113    0.119581
      4          6           0       -5.263770   -1.566586    0.065017
      5          6           0       -6.618420   -1.230805   -0.097602
      6          6           0       -7.024285    0.106562   -0.234393
      7          6           0       -2.834133   -0.539851    0.278854
      8          6           0       -2.492098    0.931462    0.246530
      9          7           0       -3.619256    1.632065    0.063577
     10          6           0       -3.670663    3.094262   -0.090651
     11          6           0       -2.293174    3.671287   -0.424625
     12          6           0       -1.251816    3.070761    0.528190
     13          6           0       -1.228611    1.563254    0.371188
     14          8           0        0.019657    3.702744    0.449392
     15          6           0        1.068229    3.028837   -0.252591
     16          6           0        1.186178    1.576049    0.146680
     17          6           0       -0.033063    0.877243    0.328431
     18          6           0        2.331023    3.851275    0.029875
     19          6           0        3.674023    3.129093   -0.192744
     20          7           0        3.573180    1.670845   -0.152701
     21          6           0        2.419645    0.971276    0.108998
     22          6           0        2.774823   -0.495109    0.278971
     23          6           0        4.271521   -0.500385    0.069575
     24          6           0        4.687383    0.823231   -0.176377
     25          6           0        6.022800    1.155292   -0.409007
     26          6           0        6.960327    0.115628   -0.390864
     27          6           0        6.545239   -1.192498   -0.136732
     28          6           0        5.198606   -1.527147    0.087931
     29         16           0       -7.875734   -2.576935   -0.090331
     30         16           0        7.768187   -2.500256   -0.132580
     31          8           0       -8.186581   -2.670805    1.374564
     32          8           0       -8.974879   -2.026511   -0.946216
     33          8           0       -7.120395   -3.742707   -0.655555
     34          8           0        8.993938   -2.010226   -0.784244
     35          8           0        8.040356   -2.587130    1.509917
     36          8           0        7.139341   -3.781846   -0.518904
     37          1           0       -6.415039    2.190277   -0.294102
     38          1           0       -4.995669   -2.623152    0.128781
     39          1           0       -8.087109    0.299318   -0.390728
     40          1           0       -2.321827   -1.082069   -0.533354
     41          1           0       -2.499752   -0.993076    1.227232
     42          1           0       -4.066738    3.518762    0.847274
     43          1           0       -4.397771    3.316242   -0.884063
     44          1           0       -2.324856    4.764579   -0.311112
     45          1           0       -2.024495    3.446094   -1.469733
     46          1           0       -1.588763    3.284037    1.560802
     47          1           0        0.844701    3.051578   -1.340230
     48          1           0       -0.032531   -0.215823    0.360073
     49          1           0        2.252594    4.140384    1.089629
     50          1           0        2.315528    4.781317   -0.554113
     51          1           0        4.399098    3.446836    0.573791
     52          1           0        4.107156    3.401437   -1.170713
     53          1           0        2.242150   -1.120421   -0.456675
     54          1           0        2.491298   -0.862987    1.278667
     55          1           0        6.337967    2.179643   -0.608460
     56          1           0        8.015529    0.312825   -0.581029
     57          1           0        4.913520   -2.565770    0.260643
     58          1           0        8.167675   -3.537297    1.697479
 ---------------------------------------------------------------------

 The electronic state is 1-A.
 Alpha  occ. eigenvalues --  -89.14972 -89.01729 -19.21154 -19.19666 -19.16691
 Alpha  occ. eigenvalues --  -19.16603 -19.02785 -19.02771 -19.02693 -14.45927
 Alpha  occ. eigenvalues --  -14.44673 -10.30972 -10.30792 -10.30043 -10.29977
 Alpha  occ. eigenvalues --  -10.29584 -10.29431 -10.29238 -10.27045 -10.26602
 Alpha  occ. eigenvalues --  -10.26480 -10.25991 -10.25828 -10.25623 -10.25420
 Alpha  occ. eigenvalues --  -10.25399 -10.25393 -10.25349 -10.25019 -10.24847
 Alpha  occ. eigenvalues --  -10.24491 -10.22178 -10.21455 -10.19610 -10.19338
 Alpha  occ. eigenvalues --  -10.18894  -8.18136  -8.04564  -6.14560  -6.14403
 Alpha  occ. eigenvalues --   -6.14265  -6.00894  -6.00867  -6.00858  -1.15804
 Alpha  occ. eigenvalues --   -1.09411  -1.06128  -1.06017  -1.05298  -1.03092
 Alpha  occ. eigenvalues --   -1.01627  -0.92476  -0.89752  -0.89065  -0.88371
 Alpha  occ. eigenvalues --   -0.88097  -0.87531  -0.86873  -0.85184  -0.82460
 Alpha  occ. eigenvalues --   -0.81614  -0.80092  -0.77649  -0.77093  -0.75042
 Alpha  occ. eigenvalues --   -0.74458  -0.73329  -0.71383  -0.68544  -0.68066
 Alpha  occ. eigenvalues --   -0.66528  -0.65302  -0.64637  -0.62462  -0.61629
 Alpha  occ. eigenvalues --   -0.59682  -0.58683  -0.57901  -0.57288  -0.57105
 Alpha  occ. eigenvalues --   -0.56001  -0.55087  -0.54785  -0.54194  -0.53313
 Alpha  occ. eigenvalues --   -0.52563  -0.52475  -0.51226  -0.50874  -0.50371
 Alpha  occ. eigenvalues --   -0.49786  -0.49285  -0.48759  -0.48364  -0.47861
 Alpha  occ. eigenvalues --   -0.47733  -0.46754  -0.46275  -0.45905  -0.45597
 Alpha  occ. eigenvalues --   -0.45008  -0.44709  -0.44516  -0.44012  -0.43831
 Alpha  occ. eigenvalues --   -0.43353  -0.43219  -0.42403  -0.41856  -0.40750
 Alpha  occ. eigenvalues --   -0.40235  -0.39820  -0.39007  -0.38776  -0.38316
 Alpha  occ. eigenvalues --   -0.37857  -0.36824  -0.36328  -0.36220  -0.35923
 Alpha  occ. eigenvalues --   -0.34833  -0.34709  -0.34163  -0.34138  -0.32072
 Alpha  occ. eigenvalues --   -0.31424  -0.31341  -0.30610  -0.27140  -0.26719
 Alpha  occ. eigenvalues --   -0.23946  -0.23659  -0.23508  -0.20860  -0.20625
 Alpha  occ. eigenvalues --   -0.19661  -0.16495
 Alpha virt. eigenvalues --   -0.13615  -0.07485  -0.07191  -0.04567  -0.02086
 Alpha virt. eigenvalues --   -0.00561  -0.00071   0.00251   0.00530   0.00941
 Alpha virt. eigenvalues --    0.02045   0.03051   0.03794   0.04046   0.04657

 Mulliken atomic charges:
              1
     1  C   -0.009194
     2  C    0.223566
     3  C   -0.131564
     4  C    0.044591
     5  C   -0.243027
     6  C    0.109085
     7  C    0.178773
     8  C    0.080371
     9  N   -0.265754
    10  C    0.088140
    11  C    0.047433
    12  C    0.160860
    13  C   -0.118447
    14  O   -0.323345
    15  C    0.129898
    16  C   -0.102539
    17  C    0.009782
    18  C    0.032178
    19  C    0.094818
    20  N   -0.319267
    21  C    0.086850
    22  C    0.182460
    23  C   -0.151612
    24  C    0.270058
    25  C   -0.011629
    26  C    0.106478
    27  C   -0.251228
    28  C    0.049769
    29  S    0.986465
    30  S    0.994346
    31  O   -0.517491
    32  O   -0.520401
    33  O   -0.525284
    34  O   -0.410856
    35  O   -0.325157
    36  O   -0.437052
    37  H   -0.028064
    38  H   -0.025045
    39  H   -0.006232
    40  H    0.081151
    41  H    0.081440
    42  H    0.058144
    43  H    0.061164
    44  H    0.031107
    45  H    0.024669
    46  H    0.026418
    47  H    0.016054
    48  H   -0.026126
    49  H    0.038205
    50  H    0.029952
    51  H    0.050337
    52  H    0.046744
    53  H    0.079737
    54  H    0.079927
    55  H   -0.012573
    56  H    0.005599
    57  H   -0.015166
    58  H    0.190482
 Sum of Mulliken atomic charges =   0.00000

 Dipole moment (field-independent basis, Debye):
    X=             22.9757    Y=             17.0220    Z=              1.4854  Tot=             28.6328
 Quadrupole moment (field-independent basis, Debye-Ang):
   XX=           -436.6424   YY=           -226.8575   ZZ=           -225.8377
   XY=            -77.3701   XZ=             11.5478   YZ=            -14.0646

 Normal termination of Gaussian 09 at Thu Mar 19 18:16:37 2015.
