 Gaussian 09, Revision B.01,
 Gaussian 09:  EM64L-G09RevB.01 12-Aug-2010

 ------------------------------------------------------
 # opt=modredundant B3LYP/cc-pVDZ Geom=PrintInputOrient
 ------------------------------------------------------

 -------------------------------
 CY3 Dihedral Scan at MP2/6-31G*
 -------------------------------
 Symbolic Z-matrix:
 Charge =  0 Multiplicity = 1

 SCF Done:  E(RB3LYP) =  -2398.26711824     A.U. after   22 cycles
 SCF Done:  E(RB3LYP) =  -2398.26712606     A.U. after    8 cycles
 Optimization completed.
    -- Stationary point found.
 SCF Done:  E(RB3LYP) =  -2398.26148714     A.U. after   14 cycles
 SCF Done:  E(RB3LYP) =  -2398.26167980     A.U. after   11 cycles
 SCF Done:  E(RB3LYP) =  -2398.26302230     A.U. after   12 cycles
 SCF Done:  E(RB3LYP) =  -2398.26330183     A.U. after   12 cycles
 SCF Done:  E(RB3LYP) =  -2398.26334173     A.U. after   11 cycles
 SCF Done:  E(RB3LYP) =  -2398.26334580     A.U. after   11 cycles
 SCF Done:  E(RB3LYP) =  -2398.26334705     A.U. after    9 cycles
 SCF Done:  E(RB3LYP) =  -2398.26334752     A.U. after    8 cycles
 SCF Done:  E(RB3LYP) =  -2398.26335093     A.U. after    7 cycles
 SCF Done:  E(RB3LYP) =  -2398.26335094     A.U. after    7 cycles
 Optimization completed.
    -- Stationary point found.
 SCF Done:  E(RB3LYP) =  -2398.24810701     A.U. after   14 cycles
 SCF Done:  E(RB3LYP) =  -2398.25112511     A.U. after   13 cycles
 SCF Done:  E(RB3LYP) =  -2398.25126862     A.U. after   12 cycles
 SCF Done:  E(RB3LYP) =  -2398.25128016     A.U. after    9 cycles
 SCF Done:  E(RB3LYP) =  -2398.25128214     A.U. after    9 cycles
 SCF Done:  E(RB3LYP) =  -2398.25128240     A.U. after    8 cycles
 SCF Done:  E(RB3LYP) =  -2398.25128242     A.U. after    7 cycles
 SCF Done:  E(RB3LYP) =  -2398.25128242     A.U. after    7 cycles
 Optimization completed.
    -- Stationary point found.

                         Standard orientation:
 ---------------------------------------------------------------------
 Center     Atomic      Atomic             Coordinates (Angstroms)
 Number     Number       Type             X           Y           Z
 ---------------------------------------------------------------------
      1          6           0       -6.115473    1.184832    0.067811
      2          6           0       -4.776020    0.793431    0.128204
      3          6           0       -4.371551   -0.552077    0.067597
      4          6           0       -5.320309   -1.553315   -0.057488
      5          6           0       -6.674900   -1.184071   -0.100713
      6          6           0       -7.062295    0.165527   -0.050800
      7          6           0       -2.863342   -0.589260    0.137642
      8          6           0       -2.495785    0.870559    0.263911
      9          7           0       -3.617937    1.601220    0.236495
     10          6           0       -3.650824    3.071778    0.271782
     11          6           0       -2.286433    3.671071   -0.075924
     12          6           0       -1.198292    2.945258    0.725224
     13          6           0       -1.214024    1.467704    0.384342
     14          8           0        0.076877    3.568051    0.639539
     15          6           0        1.052519    2.976661   -0.219096
     16          6           0        1.181239    1.480810    0.014906
     17          6           0       -0.037097    0.775137    0.195461
     18          6           0        2.368869    3.702237    0.054468
     19          6           0        3.535253    3.027298   -0.666915
     20          7           0        3.571294    1.610041   -0.318292
     21          6           0        2.415227    0.884063   -0.079804
     22          6           0        2.796810   -0.593662    0.013737
     23          6           0        4.308148   -0.497741    0.085996
     24          6           0        4.641668    0.728762   -0.536193
     25          6           0        5.932681    1.017116   -0.972486
     26          6           0        6.913755    0.031138   -0.787027
     27          6           0        6.588881   -1.163608   -0.145869
     28          6           0        5.274540   -1.470354    0.258408
     29         16           0       -7.957831   -2.503025   -0.184869
     30         16           0        7.870832   -2.390772    0.092639
     31          8           0       -8.278528   -2.682254    1.269852
     32          8           0       -9.040978   -1.874148   -1.006243
     33          8           0       -7.225790   -3.645843   -0.822752
     34          8           0        8.998866   -2.076915   -0.798533
     35          8           0        8.323515   -2.017977    1.652458
     36          8           0        7.267528   -3.740624    0.150568
     37          1           0       -6.419254    2.232592    0.109789
     38          1           0       -5.071542   -2.613624   -0.136508
     39          1           0       -8.127492    0.391765   -0.122686
     40          1           0       -2.407645   -1.034842   -0.762234
     41          1           0       -2.484518   -1.158432    1.003304
     42          1           0       -3.977864    3.377041    1.280050
     43          1           0       -4.422672    3.401154   -0.437488
     44          1           0       -2.290624    4.741776    0.174473
     45          1           0       -2.088634    3.575674   -1.156177
     46          1           0       -1.464110    3.031333    1.796279
     47          1           0        0.753046    3.136496   -1.276239
     48          1           0       -0.053845   -0.314831    0.109542
     49          1           0        2.542840    3.692516    1.142204
     50          1           0        2.297158    4.752367   -0.262649
     51          1           0        4.489610    3.481561   -0.362244
     52          1           0        3.446154    3.140632   -1.763589
     53          1           0        2.503426   -1.121983   -0.909811
     54          1           0        2.312734   -1.098656    0.861682
     55          1           0        6.188227    1.970626   -1.436144
     56          1           0        7.937481    0.193802   -1.124935
     57          1           0        5.044727   -2.454832    0.668508
     58          1           0        8.379898   -2.878296    2.110974
 ---------------------------------------------------------------------

 The electronic state is 1-A.
 Alpha  occ. eigenvalues --  -89.14940 -89.01853 -19.21086 -19.19737 -19.16686
 Alpha  occ. eigenvalues --  -19.16560 -19.02922 -19.02885 -19.02829 -14.46129
 Alpha  occ. eigenvalues --  -14.44278 -10.31107 -10.30648 -10.30062 -10.29930
 Alpha  occ. eigenvalues --  -10.29381 -10.29363 -10.29317 -10.27031 -10.26535
 Alpha  occ. eigenvalues --  -10.26528 -10.25776 -10.25679 -10.25626 -10.25565
 Alpha  occ. eigenvalues --  -10.25557 -10.25463 -10.25301 -10.24957 -10.24864
 Alpha  occ. eigenvalues --  -10.24628 -10.22328 -10.21590 -10.19689 -10.19524
 Alpha  occ. eigenvalues --  -10.19045  -8.18098  -8.04688  -6.14522  -6.14369
 Alpha  occ. eigenvalues --   -6.14224  -6.01019  -6.00991  -6.00983  -1.15792
 Alpha  occ. eigenvalues --   -1.09513  -1.06287  -1.05742  -1.05246  -1.03090
 Alpha  occ. eigenvalues --   -1.01757  -0.92432  -0.89795  -0.89041  -0.88494
 Alpha  occ. eigenvalues --   -0.88231  -0.87644  -0.86761  -0.85308  -0.82430
 Alpha  occ. eigenvalues --   -0.81418  -0.80119  -0.77579  -0.77056  -0.75029
 Alpha  occ. eigenvalues --   -0.74360  -0.73317  -0.71184  -0.68478  -0.67965
 Alpha  occ. eigenvalues --   -0.66440  -0.65209  -0.64483  -0.62540  -0.61713
 Alpha  occ. eigenvalues --   -0.59827  -0.58636  -0.58066  -0.57694  -0.57093
 Alpha  occ. eigenvalues --   -0.55940  -0.55191  -0.54381  -0.54117  -0.53259
 Alpha  occ. eigenvalues --   -0.52640  -0.52543  -0.51469  -0.50557  -0.50131
 Alpha  occ. eigenvalues --   -0.49529  -0.49216  -0.48767  -0.48473  -0.47849
 Alpha  occ. eigenvalues --   -0.47740  -0.46570  -0.46328  -0.46009  -0.45664
 Alpha  occ. eigenvalues --   -0.45125  -0.44893  -0.44597  -0.44428  -0.44036
 Alpha  occ. eigenvalues --   -0.43252  -0.42637  -0.42329  -0.41517  -0.40526
 Alpha  occ. eigenvalues --   -0.40113  -0.39865  -0.39281  -0.38795  -0.38462
 Alpha  occ. eigenvalues --   -0.38063  -0.36840  -0.36451  -0.36148  -0.35964
 Alpha  occ. eigenvalues --   -0.34878  -0.34694  -0.34171  -0.34017  -0.32221
 Alpha  occ. eigenvalues --   -0.31445  -0.31324  -0.30362  -0.27150  -0.26841
 Alpha  occ. eigenvalues --   -0.24090  -0.23786  -0.23627  -0.21009  -0.20724
 Alpha  occ. eigenvalues --   -0.19790  -0.16617
 Alpha virt. eigenvalues --   -0.13769  -0.08009  -0.07114  -0.04881  -0.02201
 Alpha virt. eigenvalues --   -0.00669  -0.00030   0.00229   0.00976   0.01035
 Alpha virt. eigenvalues --    0.02074   0.02675   0.03735   0.04070   0.04674

 Mulliken atomic charges:
              1
     1  C   -0.009738
     2  C    0.223183
     3  C   -0.129849
     4  C    0.040371
     5  C   -0.243317
     6  C    0.113712
     7  C    0.179108
     8  C    0.080549
     9  N   -0.264585
    10  C    0.088103
    11  C    0.047917
    12  C    0.157421
    13  C   -0.117891
    14  O   -0.319422
    15  C    0.124814
    16  C   -0.089770
    17  C    0.011010
    18  C    0.043351
    19  C    0.093028
    20  N   -0.289301
    21  C    0.106862
    22  C    0.128026
    23  C   -0.108519
    24  C    0.219415
    25  C   -0.021280
    26  C    0.109257
    27  C   -0.254625
    28  C    0.066114
    29  S    0.986604
    30  S    0.996505
    31  O   -0.516280
    32  O   -0.519840
    33  O   -0.524348
    34  O   -0.409830
    35  O   -0.323921
    36  O   -0.440160
    37  H   -0.027402
    38  H   -0.024201
    39  H   -0.005998
    40  H    0.082056
    41  H    0.082208
    42  H    0.058867
    43  H    0.061398
    44  H    0.031719
    45  H    0.024590
    46  H    0.026910
    47  H    0.011316
    48  H   -0.023986
    49  H    0.034062
    50  H    0.026299
    51  H    0.046088
    52  H    0.041356
    53  H    0.082203
    54  H    0.058103
    55  H   -0.008237
    56  H    0.007171
    57  H   -0.007615
    58  H    0.190415
 Sum of Mulliken atomic charges =   0.00000

 Dipole moment (field-independent basis, Debye):
    X=             22.5519    Y=             16.8714    Z=              1.1367  Tot=             28.1873
 Quadrupole moment (field-independent basis, Debye-Ang):
   XX=           -443.4601   YY=           -229.8141   ZZ=           -222.3595
   XY=            -73.9219   XZ=              1.5573   YZ=            -13.6287

 Normal termination of Gaussian 09 at Fri Mar 20 16:07:25 2015.
