 Gaussian 09, Revision B.01,
 Gaussian 09:  EM64L-G09RevB.01 12-Aug-2010

 ------------------------------------------------------
 # opt=modredundant B3LYP/cc-pVDZ Geom=PrintInputOrient
 ------------------------------------------------------

 -------------------------------
 CY3 Dihedral Scan at MP2/6-31G*
 -------------------------------
 Symbolic Z-matrix:
 Charge =  0 Multiplicity = 1

 SCF Done:  E(RB3LYP) =  -2398.26711824     A.U. after   22 cycles
 SCF Done:  E(RB3LYP) =  -2398.26712607     A.U. after    8 cycles
 Optimization completed.
    -- Stationary point found.
 SCF Done:  E(RB3LYP) =  -2398.26154975     A.U. after   17 cycles
 SCF Done:  E(RB3LYP) =  -2398.26160648     A.U. after   11 cycles
 SCF Done:  E(RB3LYP) =  -2398.26316413     A.U. after   12 cycles
 SCF Done:  E(RB3LYP) =  -2398.26357021     A.U. after   13 cycles
 SCF Done:  E(RB3LYP) =  -2398.26363848     A.U. after   11 cycles
 SCF Done:  E(RB3LYP) =  -2398.26364171     A.U. after    8 cycles
 SCF Done:  E(RB3LYP) =  -2398.26364244     A.U. after    8 cycles
 SCF Done:  E(RB3LYP) =  -2398.26364266     A.U. after    8 cycles
 Optimization completed.
    -- Stationary point found.
 SCF Done:  E(RB3LYP) =  -2398.25270308     A.U. after   17 cycles
 SCF Done:  E(RB3LYP) =  -2398.25274039     A.U. after   12 cycles
 SCF Done:  E(RB3LYP) =  -2398.25276611     A.U. after   13 cycles
 SCF Done:  E(RB3LYP) =  -2398.25277247     A.U. after   12 cycles
 SCF Done:  E(RB3LYP) =  -2398.25277659     A.U. after   11 cycles
 SCF Done:  E(RB3LYP) =  -2398.25277762     A.U. after   11 cycles
 SCF Done:  E(RB3LYP) =  -2398.25277785     A.U. after    8 cycles
 SCF Done:  E(RB3LYP) =  -2398.25277795     A.U. after    8 cycles
 SCF Done:  E(RB3LYP) =  -2398.25277798     A.U. after    7 cycles
 SCF Done:  E(RB3LYP) =  -2398.25277799     A.U. after    7 cycles
 Optimization completed.
    -- Stationary point found.

                         Standard orientation:
 ---------------------------------------------------------------------
 Center     Atomic      Atomic             Coordinates (Angstroms)
 Number     Number       Type             X           Y           Z
 ---------------------------------------------------------------------
      1          6           0       -6.022953    1.108298   -0.237901
      2          6           0       -4.744242    0.830091    0.238489
      3          6           0       -4.318366   -0.476948    0.562226
      4          6           0       -5.167773   -1.549186    0.363450
      5          6           0       -6.452457   -1.293655   -0.152109
      6          6           0       -6.865754    0.011062   -0.453612
      7          6           0       -2.892787   -0.383528    1.080891
      8          6           0       -2.528173    1.029846    0.683741
      9          7           0       -3.684227    1.717581    0.593790
     10          6           0       -3.733679    3.167990    0.327729
     11          6           0       -2.407745    3.690256   -0.231751
     12          6           0       -1.256904    3.172412    0.637891
     13          6           0       -1.263436    1.656840    0.648098
     14          8           0       -0.001570    3.768087    0.330888
     15          6           0        0.939999    3.003642   -0.420052
     16          6           0        1.104360    1.598773    0.133311
     17          6           0       -0.078031    0.948198    0.553947
     18          6           0        2.259089    3.772366   -0.368971
     19          6           0        3.397467    2.970946   -0.998432
     20          7           0        3.450524    1.626420   -0.424964
     21          6           0        2.343621    0.995811    0.088919
     22          6           0        2.752773   -0.391965    0.544754
     23          6           0        4.216283   -0.446451    0.169830
     24          6           0        4.571589    0.787796   -0.411044
     25          6           0        5.857856    1.044788   -0.887260
     26          6           0        6.811507    0.028700   -0.756304
     27          6           0        6.460418   -1.184953   -0.162358
     28          6           0        5.159604   -1.450647    0.298132
     29         16           0       -7.601922   -2.710093   -0.401447
     30         16           0        7.701123   -2.469297   -0.025766
     31          8           0       -8.130632   -2.900317    0.990513
     32          8           0       -8.588583   -2.191293   -1.401787
     33          8           0       -6.686192   -3.796748   -0.881508
     34          8           0        8.810155   -2.157708   -0.941859
     35          8           0        8.208528   -2.174463    1.534445
     36          8           0        7.051557   -3.797816   -0.007701
     37          1           0       -6.360342    2.123261   -0.456689
     38          1           0       -4.879221   -2.583653    0.559789
     39          1           0       -7.865423    0.138106   -0.873084
     40          1           0       -2.222510   -1.157250    0.682840
     41          1           0       -2.850551   -0.432999    2.184272
     42          1           0       -3.985784    3.671089    1.276149
     43          1           0       -4.556472    3.356231   -0.372996
     44          1           0       -2.421038    4.789869   -0.223860
     45          1           0       -2.275354    3.357754   -1.274475
     46          1           0       -1.455811    3.499784    1.676383
     47          1           0        0.593873    2.925436   -1.472018
     48          1           0       -0.075294   -0.132278    0.720306
     49          1           0        2.485223    3.984339    0.688277
     50          1           0        2.158618    4.736144   -0.888036
     51          1           0        4.359929    3.467556   -0.809620
     52          1           0        3.274939    2.889877   -2.093994
     53          1           0        2.157134   -1.169853    0.038052
     54          1           0        2.590964   -0.519779    1.627519
     55          1           0        6.122351    1.991772   -1.358274
     56          1           0        7.828334    0.168332   -1.123743
     57          1           0        4.917665   -2.424695    0.725433
     58          1           0        8.347774   -3.057639    1.927773
 ---------------------------------------------------------------------

 The electronic state is 1-A.
 Alpha  occ. eigenvalues --  -89.15072 -89.01570 -19.21237 -19.19776 -19.16802
 Alpha  occ. eigenvalues --  -19.16691 -19.02624 -19.02610 -19.02574 -14.45268
 Alpha  occ. eigenvalues --  -14.44962 -10.31099 -10.30876 -10.30065 -10.29991
 Alpha  occ. eigenvalues --  -10.29741 -10.29694 -10.28828 -10.27221 -10.26761
 Alpha  occ. eigenvalues --  -10.26727 -10.26153 -10.25962 -10.25755 -10.25566
 Alpha  occ. eigenvalues --  -10.25529 -10.25217 -10.25203 -10.25081 -10.24812
 Alpha  occ. eigenvalues --  -10.24694 -10.21829 -10.21249 -10.19486 -10.19018
 Alpha  occ. eigenvalues --  -10.18623  -8.18234  -8.04406  -6.14657  -6.14501
 Alpha  occ. eigenvalues --   -6.14362  -6.00735  -6.00710  -6.00702  -1.15909
 Alpha  occ. eigenvalues --   -1.09549  -1.06342  -1.05561  -1.05388  -1.03205
 Alpha  occ. eigenvalues --   -1.01465  -0.92734  -0.89713  -0.88903  -0.88217
 Alpha  occ. eigenvalues --   -0.87928  -0.87880  -0.86759  -0.84958  -0.82609
 Alpha  occ. eigenvalues --   -0.81760  -0.79911  -0.77589  -0.76872  -0.74901
 Alpha  occ. eigenvalues --   -0.74372  -0.73193  -0.71370  -0.68474  -0.68074
 Alpha  occ. eigenvalues --   -0.66546  -0.65187  -0.64797  -0.62361  -0.61375
 Alpha  occ. eigenvalues --   -0.59908  -0.58826  -0.58066  -0.57769  -0.57137
 Alpha  occ. eigenvalues --   -0.55978  -0.54713  -0.54506  -0.54164  -0.53312
 Alpha  occ. eigenvalues --   -0.52794  -0.52106  -0.51382  -0.51081  -0.50267
 Alpha  occ. eigenvalues --   -0.49762  -0.49074  -0.48788  -0.48404  -0.47946
 Alpha  occ. eigenvalues --   -0.47434  -0.46835  -0.46483  -0.45845  -0.45698
 Alpha  occ. eigenvalues --   -0.45262  -0.44692  -0.44604  -0.44378  -0.43756
 Alpha  occ. eigenvalues --   -0.43270  -0.42789  -0.42152  -0.41711  -0.40791
 Alpha  occ. eigenvalues --   -0.40052  -0.39897  -0.39407  -0.38898  -0.38053
 Alpha  occ. eigenvalues --   -0.37716  -0.36919  -0.36305  -0.36104  -0.35851
 Alpha  occ. eigenvalues --   -0.34767  -0.34440  -0.34261  -0.34153  -0.32206
 Alpha  occ. eigenvalues --   -0.31554  -0.31491  -0.30674  -0.27010  -0.26425
 Alpha  occ. eigenvalues --   -0.23971  -0.23526  -0.23384  -0.20723  -0.20432
 Alpha  occ. eigenvalues --   -0.19462  -0.16348
 Alpha virt. eigenvalues --   -0.14038  -0.07601  -0.07354  -0.04768  -0.01796
 Alpha virt. eigenvalues --   -0.00540  -0.00180   0.00126   0.00736   0.00900
 Alpha virt. eigenvalues --    0.02038   0.02881   0.03611   0.03971   0.04737

 Mulliken atomic charges:
              1
     1  C   -0.002566
     2  C    0.203843
     3  C   -0.124797
     4  C    0.052509
     5  C   -0.242776
     6  C    0.101427
     7  C    0.171263
     8  C    0.079989
     9  N   -0.259899
    10  C    0.102974
    11  C    0.038841
    12  C    0.159173
    13  C   -0.122223
    14  O   -0.320193
    15  C    0.132184
    16  C   -0.104230
    17  C    0.027461
    18  C    0.038436
    19  C    0.094872
    20  N   -0.312434
    21  C    0.085498
    22  C    0.185465
    23  C   -0.154257
    24  C    0.267451
    25  C   -0.009128
    26  C    0.109580
    27  C   -0.251456
    28  C    0.050590
    29  S    0.986268
    30  S    0.995265
    31  O   -0.518254
    32  O   -0.521019
    33  O   -0.526823
    34  O   -0.409763
    35  O   -0.325040
    36  O   -0.436843
    37  H   -0.024657
    38  H   -0.024541
    39  H   -0.006768
    40  H    0.059393
    41  H    0.085922
    42  H    0.053623
    43  H    0.056195
    44  H    0.028991
    45  H    0.025034
    46  H    0.025022
    47  H    0.014422
    48  H   -0.026555
    49  H    0.031953
    50  H    0.027905
    51  H    0.048955
    52  H    0.048008
    53  H    0.082561
    54  H    0.080219
    55  H   -0.009734
    56  H    0.006026
    57  H   -0.014056
    58  H    0.190696
 Sum of Mulliken atomic charges =   0.00000

 Dipole moment (field-independent basis, Debye):
    X=             22.6207    Y=             18.0624    Z=              3.3480  Tot=             29.1403
 Quadrupole moment (field-independent basis, Debye-Ang):
   XX=           -419.2632   YY=           -235.6528   ZZ=           -220.5284
   XY=            -78.7222   XZ=             -4.0631   YZ=            -20.0094

 Normal termination of Gaussian 09 at Fri Mar 20 22:28:52 2015.
