 Gaussian 09, Revision B.01,
 Gaussian 09:  EM64L-G09RevB.01 12-Aug-2010

 ------------------------------------------------------
 # opt=modredundant B3LYP/cc-pVDZ Geom=PrintInputOrient
 ------------------------------------------------------

 -------------------------------
 CY3 Dihedral Scan at MP2/6-31G*
 -------------------------------
 Symbolic Z-matrix:
 Charge =  0 Multiplicity = 1

 SCF Done:  E(RB3LYP) =  -2398.26711824     A.U. after   22 cycles
 SCF Done:  E(RB3LYP) =  -2398.26712594     A.U. after    9 cycles
 Optimization completed.
    -- Stationary point found.
 SCF Done:  E(RB3LYP) =  -2398.26451608     A.U. after   13 cycles
 SCF Done:  E(RB3LYP) =  -2398.26130945     A.U. after   16 cycles
 SCF Done:  E(RB3LYP) =  -2398.26207940     A.U. after   16 cycles
 SCF Done:  E(RB3LYP) =  -2398.26255468     A.U. after   15 cycles
 SCF Done:  E(RB3LYP) =  -2398.26283833     A.U. after   13 cycles
 SCF Done:  E(RB3LYP) =  -2398.26302450     A.U. after   13 cycles
 SCF Done:  E(RB3LYP) =  -2398.26314846     A.U. after   13 cycles
 SCF Done:  E(RB3LYP) =  -2398.26321467     A.U. after   14 cycles
 SCF Done:  E(RB3LYP) =  -2398.26553153     A.U. after    8 cycles
 SCF Done:  E(RB3LYP) =  -2398.26553157     A.U. after    8 cycles
 SCF Done:  E(RB3LYP) =  -2398.26553156     A.U. after    7 cycles
 Optimization completed.
    -- Stationary point found.
 SCF Done:  E(RB3LYP) =  -2398.25808813     A.U. after   14 cycles
 SCF Done:  E(RB3LYP) =  -2398.25801378     A.U. after   12 cycles
 SCF Done:  E(RB3LYP) =  -2398.25855778     A.U. after   13 cycles
 SCF Done:  E(RB3LYP) =  -2398.25857065     A.U. after   12 cycles
 SCF Done:  E(RB3LYP) =  -2398.25857426     A.U. after   11 cycles
 SCF Done:  E(RB3LYP) =  -2398.25857438     A.U. after    8 cycles
 SCF Done:  E(RB3LYP) =  -2398.25857434     A.U. after    7 cycles
 Optimization completed.
    -- Stationary point found.

                         Standard orientation:
 ---------------------------------------------------------------------
 Center     Atomic      Atomic             Coordinates (Angstroms)
 Number     Number       Type             X           Y           Z
 ---------------------------------------------------------------------
      1          6           0        6.134086    1.144997   -0.206253
      2          6           0        4.783467    0.785782   -0.251099
      3          6           0        4.351620   -0.553112   -0.344230
      4          6           0        5.303630   -1.557346   -0.422520
      5          6           0        6.605617   -1.227135   -0.005019
      6          6           0        7.058920    0.099141   -0.108707
      7          6           0        2.849221   -0.548580   -0.490269
      8          6           0        2.507977    0.922164   -0.421592
      9          7           0        3.642151    1.622626   -0.286443
     10          6           0        3.698191    3.083880   -0.121869
     11          6           0        2.343303    3.650697    0.308460
     12          6           0        1.245791    3.061866   -0.586850
     13          6           0        1.237206    1.550907   -0.456521
     14          8           0       -0.020128    3.686569   -0.416935
     15          6           0       -1.010816    3.002266    0.351193
     16          6           0       -1.156577    1.552525   -0.074788
     17          6           0        0.047404    0.860315   -0.358546
     18          6           0       -2.316684    3.768962    0.149463
     19          6           0       -3.499854    3.034412    0.778436
     20          7           0       -3.533587    1.644954    0.325024
     21          6           0       -2.400336    0.963857   -0.057255
     22          6           0       -2.795303   -0.458228   -0.409956
     23          6           0       -4.279866   -0.471184   -0.123480
     24          6           0       -4.658132    0.813233    0.318345
     25          6           0       -5.969561    1.116725    0.687722
     26          6           0       -6.922951    0.096581    0.591178
     27          6           0       -6.547685   -1.167803    0.133497
     28          6           0       -5.223064   -1.478863   -0.218599
     29         16           0        7.795926   -2.583819    0.357197
     30         16           0       -7.788249   -2.454667    0.034731
     31          8           0        9.120678   -2.012017   -0.045618
     32          8           0        7.585080   -2.742047    1.834106
     33          8           0        7.286356   -3.717347   -0.483141
     34          8           0       -8.944871   -2.065185    0.857435
     35          8           0       -8.208802   -2.293230   -1.570464
     36          8           0       -7.148282   -3.782094    0.163526
     37          1           0        6.459245    2.186639   -0.245800
     38          1           0        5.057525   -2.613639   -0.554445
     39          1           0        8.130050    0.284279   -0.012374
     40          1           0        2.340612   -1.110965    0.309748
     41          1           0        2.510660   -0.977984   -1.448761
     42          1           0        4.026826    3.520475   -1.080073
     43          1           0        4.476542    3.300031    0.622889
     44          1           0        2.364855    4.745781    0.210890
     45          1           0        2.142939    3.407529    1.364804
     46          1           0        1.516048    3.294440   -1.634795
     47          1           0       -0.723813    3.027134    1.423319
     48          1           0        0.044444   -0.231513   -0.421969
     49          1           0       -2.475864    3.882516   -0.934755
     50          1           0       -2.238215    4.776418    0.582288
     51          1           0       -4.443103    3.518789    0.487994
     52          1           0       -3.443740    3.053111    1.882436
     53          1           0       -2.240717   -1.190457    0.200612
     54          1           0       -2.569550   -0.684610   -1.464824
     55          1           0       -6.253978    2.103926    1.052628
     56          1           0       -7.958888    0.273519    0.880988
     57          1           0       -4.964653   -2.488898   -0.539446
     58          1           0       -8.313880   -3.207342   -1.897994
 ---------------------------------------------------------------------

 The electronic state is 1-A.
 Alpha  occ. eigenvalues --  -89.14907 -89.01858 -19.21064 -19.19660 -19.16645
 Alpha  occ. eigenvalues --  -19.16529 -19.03000 -19.02961 -19.02762 -14.45916
 Alpha  occ. eigenvalues --  -14.44522 -10.30914 -10.30679 -10.29954 -10.29874
 Alpha  occ. eigenvalues --  -10.29489 -10.29441 -10.29195 -10.26954 -10.26489
 Alpha  occ. eigenvalues --  -10.26408 -10.25882 -10.25728 -10.25541 -10.25371
 Alpha  occ. eigenvalues --  -10.25366 -10.25362 -10.25304 -10.24879 -10.24809
 Alpha  occ. eigenvalues --  -10.24489 -10.22237 -10.21442 -10.19711 -10.19427
 Alpha  occ. eigenvalues --  -10.19097  -8.18068  -8.04695  -6.14492  -6.14337
 Alpha  occ. eigenvalues --   -6.14196  -6.01025  -6.01001  -6.00987  -1.15744
 Alpha  occ. eigenvalues --   -1.09418  -1.06084  -1.05949  -1.05216  -1.03043
 Alpha  occ. eigenvalues --   -1.01768  -0.92476  -0.89685  -0.88984  -0.88533
 Alpha  occ. eigenvalues --   -0.88227  -0.87677  -0.86779  -0.85223  -0.82447
 Alpha  occ. eigenvalues --   -0.81525  -0.80032  -0.77596  -0.77038  -0.74950
 Alpha  occ. eigenvalues --   -0.74338  -0.73270  -0.71248  -0.68451  -0.67952
 Alpha  occ. eigenvalues --   -0.66399  -0.65208  -0.64638  -0.62449  -0.61534
 Alpha  occ. eigenvalues --   -0.59875  -0.58642  -0.57991  -0.57624  -0.57041
 Alpha  occ. eigenvalues --   -0.55912  -0.55012  -0.54454  -0.54145  -0.53201
 Alpha  occ. eigenvalues --   -0.52505  -0.52429  -0.51278  -0.50808  -0.50089
 Alpha  occ. eigenvalues --   -0.49622  -0.49205  -0.48696  -0.48339  -0.47699
 Alpha  occ. eigenvalues --   -0.47674  -0.46696  -0.46299  -0.45863  -0.45698
 Alpha  occ. eigenvalues --   -0.45157  -0.44767  -0.44518  -0.44233  -0.43917
 Alpha  occ. eigenvalues --   -0.43232  -0.42978  -0.42352  -0.41551  -0.40595
 Alpha  occ. eigenvalues --   -0.40011  -0.39932  -0.39391  -0.38855  -0.38520
 Alpha  occ. eigenvalues --   -0.37900  -0.36878  -0.36551  -0.36151  -0.35905
 Alpha  occ. eigenvalues --   -0.34810  -0.34675  -0.34113  -0.34038  -0.32063
 Alpha  occ. eigenvalues --   -0.31340  -0.31295  -0.30554  -0.26971  -0.26504
 Alpha  occ. eigenvalues --   -0.23989  -0.23774  -0.23589  -0.21016  -0.20627
 Alpha  occ. eigenvalues --   -0.19868  -0.16641
 Alpha virt. eigenvalues --   -0.13585  -0.07388  -0.07119  -0.04555  -0.02345
 Alpha virt. eigenvalues --   -0.00879   0.00043   0.00306   0.00893   0.01048
 Alpha virt. eigenvalues --    0.02177   0.03072   0.03929   0.03993   0.04979

 Mulliken atomic charges:
              1
     1  C   -0.016886
     2  C    0.220527
     3  C   -0.141837
     4  C    0.042396
     5  C   -0.247614
     6  C    0.105922
     7  C    0.172302
     8  C    0.081912
     9  N   -0.260969
    10  C    0.088453
    11  C    0.048514
    12  C    0.156284
    13  C   -0.117079
    14  O   -0.320281
    15  C    0.129189
    16  C   -0.098028
    17  C    0.008992
    18  C    0.038730
    19  C    0.095664
    20  N   -0.314598
    21  C    0.081838
    22  C    0.186227
    23  C   -0.155356
    24  C    0.268196
    25  C   -0.010469
    26  C    0.109333
    27  C   -0.251955
    28  C    0.049371
    29  S    0.990554
    30  S    0.995166
    31  O   -0.516793
    32  O   -0.518779
    33  O   -0.521231
    34  O   -0.410375
    35  O   -0.325256
    36  O   -0.438460
    37  H   -0.028211
    38  H   -0.007668
    39  H    0.004586
    40  H    0.080705
    41  H    0.080894
    42  H    0.056705
    43  H    0.061341
    44  H    0.030855
    45  H    0.025873
    46  H    0.025387
    47  H    0.012469
    48  H   -0.026549
    49  H    0.031858
    50  H    0.026511
    51  H    0.047862
    52  H    0.045899
    53  H    0.079568
    54  H    0.079052
    55  H   -0.010885
    56  H    0.005020
    57  H   -0.015128
    58  H    0.190256
 Sum of Mulliken atomic charges =   0.00000

 Dipole moment (field-independent basis, Debye):
    X=            -22.1361    Y=             17.1149    Z=             -3.1312  Tot=             28.1554
 Quadrupole moment (field-independent basis, Debye-Ang):
   XX=           -429.4314   YY=           -230.2832   ZZ=           -223.7247
   XY=             75.5314   XZ=             -4.6506   YZ=             18.4737

 Normal termination of Gaussian 09 at Tue Mar 17 13:49:58 2015.
