 Gaussian 09, Revision B.01,
 Gaussian 09:  EM64L-G09RevB.01 12-Aug-2010

 ------------------------------------------------------
 # opt=modredundant B3LYP/cc-pVDZ Geom=PrintInputOrient
 ------------------------------------------------------

 -------------------------------
 CY3 Dihedral Scan at MP2/6-31G*
 -------------------------------
 Symbolic Z-matrix:
 Charge =  0 Multiplicity = 1

 SCF Done:  E(RB3LYP) =  -2398.26711824     A.U. after   22 cycles
 SCF Done:  E(RB3LYP) =  -2398.26712608     A.U. after    8 cycles
 Optimization completed.
    -- Stationary point found.
 SCF Done:  E(RB3LYP) =  -2398.26404445     A.U. after   14 cycles
 SCF Done:  E(RB3LYP) =  -2398.26557457     A.U. after   12 cycles
 SCF Done:  E(RB3LYP) =  -2398.26578763     A.U. after   12 cycles
 SCF Done:  E(RB3LYP) =  -2398.26582086     A.U. after   11 cycles
 SCF Done:  E(RB3LYP) =  -2398.26582765     A.U. after   11 cycles
 SCF Done:  E(RB3LYP) =  -2398.26582922     A.U. after    8 cycles
 SCF Done:  E(RB3LYP) =  -2398.26583002     A.U. after    8 cycles
 SCF Done:  E(RB3LYP) =  -2398.26583034     A.U. after    8 cycles
 Optimization completed.
    -- Stationary point found.
 SCF Done:  E(RB3LYP) =  -2398.26197049     A.U. after   13 cycles
 SCF Done:  E(RB3LYP) =  -2398.26144939     A.U. after   12 cycles
 SCF Done:  E(RB3LYP) =  -2398.26203511     A.U. after   12 cycles
 SCF Done:  E(RB3LYP) =  -2398.21835452     A.U. after   14 cycles
 SCF Done:  E(RB3LYP) =  -2398.26203519     A.U. after   18 cycles
 SCF Done:  E(RB3LYP) =  -2398.25333764     A.U. after   19 cycles
 SCF Done:  E(RB3LYP) =  -2398.26203515     A.U. after   18 cycles
 SCF Done:  E(RB3LYP) =  -2398.26203063     A.U. after   11 cycles
 SCF Done:  E(RB3LYP) =  -2398.26203049     A.U. after   12 cycles
 SCF Done:  E(RB3LYP) =  -2398.26203554     A.U. after   11 cycles
 Optimization completed.
    -- Stationary point found.

                         Standard orientation:
 ---------------------------------------------------------------------
 Center     Atomic      Atomic             Coordinates (Angstroms)
 Number     Number       Type             X           Y           Z
 ---------------------------------------------------------------------
      1          6           0       -6.080798    1.140928   -0.296841
      2          6           0       -4.750530    0.792307   -0.051498
      3          6           0       -4.335293   -0.535660    0.151833
      4          6           0       -5.263806   -1.562942    0.112989
      5          6           0       -6.610095   -1.233756   -0.114307
      6          6           0       -7.007464    0.097109   -0.327219
      7          6           0       -2.839358   -0.529998    0.360049
      8          6           0       -2.492502    0.937784    0.272736
      9          7           0       -3.611675    1.630687    0.022233
     10          6           0       -3.654038    3.084388   -0.200368
     11          6           0       -2.264369    3.644471   -0.512844
     12          6           0       -1.258136    3.085307    0.500914
     13          6           0       -1.232593    1.573644    0.408757
     14          8           0        0.013341    3.718136    0.442201
     15          6           0        1.108577    3.041903   -0.175121
     16          6           0        1.182614    1.575237    0.202655
     17          6           0       -0.036094    0.888619    0.417957
     18          6           0        2.368985    3.766317    0.309471
     19          6           0        3.648780    3.123419   -0.229946
     20          7           0        3.544279    1.658552   -0.223955
     21          6           0        2.428710    0.992968    0.247511
     22          6           0        2.807592   -0.448541    0.530674
     23          6           0        4.275468   -0.481042    0.171263
     24          6           0        4.657291    0.807559   -0.251305
     25          6           0        5.962585    1.106730   -0.644850
     26          6           0        6.903743    0.071393   -0.609683
     27          6           0        6.523069   -1.201289   -0.179747
     28          6           0        5.207083   -1.504075    0.208633
     29         16           0       -7.874300   -2.573053   -0.095743
     30         16           0        7.747630   -2.507790   -0.157051
     31          8           0       -8.368003   -2.483433    1.318211
     32          8           0       -8.850932   -2.132235   -1.142492
     33          8           0       -7.072769   -3.799289   -0.416748
     34          8           0        8.882996   -2.111302   -1.005541
     35          8           0        8.220501   -2.395994    1.437845
     36          8           0        7.084619   -3.822052   -0.301824
     37          1           0       -6.391703    2.174834   -0.458605
     38          1           0       -5.005068   -2.616529    0.237471
     39          1           0       -8.062434    0.287074   -0.531915
     40          1           0       -2.302927   -1.108781   -0.410284
     41          1           0       -2.536826   -0.940912    1.337920
     42          1           0       -4.080422    3.551822    0.703191
     43          1           0       -4.353340    3.270785   -1.027235
     44          1           0       -2.297189    4.741736   -0.448813
     45          1           0       -1.960389    3.372925   -1.537116
     46          1           0       -1.632881    3.340692    1.510777
     47          1           0        1.023188    3.127897   -1.279065
     48          1           0       -0.033305   -0.202398    0.492986
     49          1           0        2.356840    3.733143    1.410251
     50          1           0        2.337716    4.823802    0.010996
     51          1           0        4.514704    3.416520    0.384940
     52          1           0        3.852557    3.455506   -1.262671
     53          1           0        2.206150   -1.148429   -0.072818
     54          1           0        2.631483   -0.706802    1.588350
     55          1           0        6.248284    2.102604   -0.984746
     56          1           0        7.933370    0.242965   -0.924168
     57          1           0        4.946804   -2.517105    0.518367
     58          1           0        8.329343   -3.319873    1.735448
 ---------------------------------------------------------------------

 The electronic state is 1-A.
 Alpha  occ. eigenvalues --  -89.14951 -89.01792 -19.21115 -19.19774 -19.16691
 Alpha  occ. eigenvalues --  -19.16576 -19.02866 -19.02819 -19.02766 -14.45995
 Alpha  occ. eigenvalues --  -14.44348 -10.31007 -10.30627 -10.30078 -10.30047
 Alpha  occ. eigenvalues --  -10.29427 -10.29290 -10.29289 -10.26978 -10.26561
 Alpha  occ. eigenvalues --  -10.26558 -10.25913 -10.25768 -10.25570 -10.25488
 Alpha  occ. eigenvalues --  -10.25480 -10.25392 -10.25319 -10.24918 -10.24909
 Alpha  occ. eigenvalues --  -10.24639 -10.22253 -10.21508 -10.19603 -10.19475
 Alpha  occ. eigenvalues --  -10.18970  -8.18113  -8.04627  -6.14537  -6.14382
 Alpha  occ. eigenvalues --   -6.14241  -6.00958  -6.00930  -6.00922  -1.15790
 Alpha  occ. eigenvalues --   -1.09494  -1.06179  -1.05750  -1.05265  -1.03091
 Alpha  occ. eigenvalues --   -1.01693  -0.92458  -0.89796  -0.89067  -0.88430
 Alpha  occ. eigenvalues --   -0.88169  -0.87579  -0.86889  -0.85246  -0.82444
 Alpha  occ. eigenvalues --   -0.81465  -0.80118  -0.77640  -0.77099  -0.75010
 Alpha  occ. eigenvalues --   -0.74462  -0.73217  -0.71256  -0.68557  -0.68034
 Alpha  occ. eigenvalues --   -0.66402  -0.65248  -0.64570  -0.62522  -0.61659
 Alpha  occ. eigenvalues --   -0.59778  -0.58531  -0.57961  -0.57668  -0.57110
 Alpha  occ. eigenvalues --   -0.55994  -0.55111  -0.54732  -0.54150  -0.53175
 Alpha  occ. eigenvalues --   -0.52631  -0.52325  -0.51120  -0.50915  -0.50259
 Alpha  occ. eigenvalues --   -0.49813  -0.49223  -0.48730  -0.48390  -0.47786
 Alpha  occ. eigenvalues --   -0.47720  -0.46697  -0.46369  -0.45934  -0.45637
 Alpha  occ. eigenvalues --   -0.45092  -0.44776  -0.44514  -0.44004  -0.43913
 Alpha  occ. eigenvalues --   -0.43497  -0.43198  -0.42323  -0.41693  -0.40665
 Alpha  occ. eigenvalues --   -0.40259  -0.39823  -0.39201  -0.38856  -0.38391
 Alpha  occ. eigenvalues --   -0.37887  -0.36733  -0.36394  -0.36170  -0.35904
 Alpha  occ. eigenvalues --   -0.34903  -0.34765  -0.34163  -0.34114  -0.32098
 Alpha  occ. eigenvalues --   -0.31357  -0.31285  -0.30700  -0.27184  -0.26783
 Alpha  occ. eigenvalues --   -0.24023  -0.23729  -0.23555  -0.20964  -0.20646
 Alpha  occ. eigenvalues --   -0.19721  -0.16557
 Alpha virt. eigenvalues --   -0.13754  -0.07424  -0.07176  -0.04709  -0.02120
 Alpha virt. eigenvalues --   -0.00564   0.00190   0.00290   0.00659   0.00856
 Alpha virt. eigenvalues --    0.02125   0.03119   0.03631   0.04041   0.04759

 Mulliken atomic charges:
              1
     1  C   -0.010023
     2  C    0.223318
     3  C   -0.129419
     4  C    0.038050
     5  C   -0.243165
     6  C    0.115255
     7  C    0.179063
     8  C    0.081190
     9  N   -0.265380
    10  C    0.088922
    11  C    0.045142
    12  C    0.156930
    13  C   -0.114999
    14  O   -0.322986
    15  C    0.148876
    16  C   -0.094933
    17  C    0.009025
    18  C    0.029190
    19  C    0.098279
    20  N   -0.311012
    21  C    0.062810
    22  C    0.185802
    23  C   -0.150716
    24  C    0.260971
    25  C   -0.007498
    26  C    0.108449
    27  C   -0.250968
    28  C    0.049205
    29  S    0.986512
    30  S    0.995254
    31  O   -0.516600
    32  O   -0.520212
    33  O   -0.524553
    34  O   -0.410163
    35  O   -0.325519
    36  O   -0.438022
    37  H   -0.027790
    38  H   -0.024321
    39  H   -0.006195
    40  H    0.081833
    41  H    0.081598
    42  H    0.058305
    43  H    0.061384
    44  H    0.031469
    45  H    0.025291
    46  H    0.027630
    47  H    0.013624
    48  H   -0.026687
    49  H    0.030675
    50  H    0.027972
    51  H    0.049609
    52  H    0.044443
    53  H    0.079448
    54  H    0.077190
    55  H   -0.012342
    56  H    0.005402
    57  H   -0.015002
    58  H    0.190388
 Sum of Mulliken atomic charges =   0.00000

 Dipole moment (field-independent basis, Debye):
    X=             22.8874    Y=             17.1610    Z=              1.7988  Tot=             28.6630
 Quadrupole moment (field-independent basis, Debye-Ang):
   XX=           -434.2969   YY=           -229.4191   ZZ=           -224.4799
   XY=            -76.1373   XZ=             13.3175   YZ=            -15.0988

 Normal termination of Gaussian 09 at Fri Mar 20 02:05:39 2015.
