 Gaussian 09, Revision B.01,
 Gaussian 09:  EM64L-G09RevB.01 12-Aug-2010

 ------------------------------------------------------
 # opt=modredundant B3LYP/cc-pVDZ Geom=PrintInputOrient
 ------------------------------------------------------

 -------------------------------
 CY3 Dihedral Scan at MP2/6-31G*
 -------------------------------
 Symbolic Z-matrix:
 Charge =  0 Multiplicity = 1

 SCF Done:  E(RB3LYP) =  -2398.26711824     A.U. after   22 cycles
 SCF Done:  E(RB3LYP) =  -2398.26712595     A.U. after    8 cycles
 Optimization completed.
    -- Stationary point found.
 SCF Done:  E(RB3LYP) =  -2398.26420428     A.U. after   13 cycles
 SCF Done:  E(RB3LYP) =  -2398.26395490     A.U. after   12 cycles
 SCF Done:  E(RB3LYP) =  -2398.26433741     A.U. after   11 cycles
 SCF Done:  E(RB3LYP) =  -2398.26434793     A.U. after   11 cycles
 SCF Done:  E(RB3LYP) =  -2398.26435150     A.U. after   11 cycles
 SCF Done:  E(RB3LYP) =  -2398.26435294     A.U. after   10 cycles
 SCF Done:  E(RB3LYP) =  -2398.26435424     A.U. after   11 cycles
 SCF Done:  E(RB3LYP) =  -2398.26435515     A.U. after   11 cycles
 Optimization completed.
    -- Stationary point found.
 SCF Done:  E(RB3LYP) =  -2398.25547011     A.U. after   23 cycles
 SCF Done:  E(RB3LYP) =  -2398.25556371     A.U. after   21 cycles
 SCF Done:  E(RB3LYP) =  -2398.25594762     A.U. after   22 cycles
 SCF Done:  E(RB3LYP) =  -2398.25596058     A.U. after    9 cycles
 SCF Done:  E(RB3LYP) =  -2398.25596838     A.U. after   12 cycles
 SCF Done:  E(RB3LYP) =  -2398.25596956     A.U. after   10 cycles
 SCF Done:  E(RB3LYP) =  -2398.25596986     A.U. after    7 cycles
 SCF Done:  E(RB3LYP) =  -2398.25596977     A.U. after    7 cycles
 SCF Done:  E(RB3LYP) =  -2398.25596992     A.U. after    7 cycles
 SCF Done:  E(RB3LYP) =  -2398.25596984     A.U. after    7 cycles
 Optimization completed.
    -- Stationary point found.

                         Standard orientation:
 ---------------------------------------------------------------------
 Center     Atomic      Atomic             Coordinates (Angstroms)
 Number     Number       Type             X           Y           Z
 ---------------------------------------------------------------------
      1          6           0       -6.109522    1.137588   -0.075181
      2          6           0       -4.768523    0.792494    0.124380
      3          6           0       -4.347773   -0.552620    0.140815
      4          6           0       -5.278765   -1.569438   -0.017151
      5          6           0       -6.643960   -1.225089   -0.047161
      6          6           0       -7.029150    0.110996    0.162794
      7          6           0       -2.841949   -0.566007    0.257506
      8          6           0       -2.491360    0.904023    0.272593
      9          7           0       -3.620394    1.617489    0.157713
     10          6           0       -3.669428    3.084718    0.062378
     11          6           0       -2.300274    3.668011   -0.293576
     12          6           0       -1.232385    3.025867    0.601110
     13          6           0       -1.221509    1.525076    0.384179
     14          8           0        0.038927    3.655485    0.506421
     15          6           0        1.050319    3.014484   -0.271986
     16          6           0        1.182464    1.542109    0.073352
     17          6           0       -0.029970    0.837836    0.280921
     18          6           0        2.350408    3.765248    0.010511
     19          6           0        3.550155    3.064304   -0.625072
     20          7           0        3.570651    1.652094   -0.247656
     21          6           0        2.426190    0.952802    0.061216
     22          6           0        2.810086   -0.487229    0.346451
     23          6           0        4.302491   -0.487279    0.103700
     24          6           0        4.694297    0.819178   -0.254114
     25          6           0        6.016277    1.140290   -0.566351
     26          6           0        6.966253    0.114614   -0.497318
     27          6           0        6.576894   -1.172600   -0.123118
     28          6           0        5.242037   -1.500485    0.170516
     29         16           0       -7.918167   -2.546890   -0.188689
     30         16           0        7.813550   -2.465230   -0.058979
     31          8           0       -8.958532   -2.102537    0.794329
     32          8           0       -8.307201   -2.427350   -1.631320
     33          8           0       -7.162824   -3.791564    0.169906
     34          8           0        9.008910   -2.019289   -0.793292
     35          8           0        8.149638   -2.419702    1.573326
     36          8           0        7.184707   -3.778954   -0.316806
     37          1           0       -6.435605    2.180120   -0.110035
     38          1           0       -5.010681   -2.625608   -0.088388
     39          1           0       -8.098455    0.323462    0.228359
     40          1           0       -2.355845   -1.080113   -0.588023
     41          1           0       -2.482315   -1.055453    1.178748
     42          1           0       -4.032535    3.473756    1.028570
     43          1           0       -4.420372    3.340945   -0.697987
     44          1           0       -2.321994    4.756165   -0.136662
     45          1           0       -2.066905    3.482524   -1.354846
     46          1           0       -1.535314    3.198820    1.651605
     47          1           0        0.793944    3.102550   -1.348567
     48          1           0       -0.030232   -0.255893    0.282808
     49          1           0        2.478603    3.816774    1.103524
     50          1           0        2.285183    4.795784   -0.366535
     51          1           0        4.485303    3.530181   -0.282951
     52          1           0        3.524055    3.143274   -1.727514
     53          1           0        2.273280   -1.183926   -0.319074
     54          1           0        2.553582   -0.770473    1.380386
     55          1           0        6.311951    2.145771   -0.866755
     56          1           0        8.010946    0.305424   -0.743650
     57          1           0        4.973703   -2.526250    0.426834
     58          1           0        8.272953   -3.353054    1.833572
 ---------------------------------------------------------------------

 The electronic state is 1-A.
 Alpha  occ. eigenvalues --  -89.14923 -89.01891 -19.21095 -19.19685 -19.16645
 Alpha  occ. eigenvalues --  -19.16550 -19.02971 -19.02944 -19.02765 -14.45965
 Alpha  occ. eigenvalues --  -14.44562 -10.30927 -10.30717 -10.29975 -10.29908
 Alpha  occ. eigenvalues --  -10.29523 -10.29476 -10.29257 -10.26986 -10.26515
 Alpha  occ. eigenvalues --  -10.26432 -10.25916 -10.25764 -10.25567 -10.25483
 Alpha  occ. eigenvalues --  -10.25389 -10.25334 -10.25323 -10.24908 -10.24859
 Alpha  occ. eigenvalues --  -10.24529 -10.22164 -10.21549 -10.19576 -10.19541
 Alpha  occ. eigenvalues --  -10.19071  -8.18085  -8.04721  -6.14509  -6.14353
 Alpha  occ. eigenvalues --   -6.14214  -6.01055  -6.01024  -6.01013  -1.15756
 Alpha  occ. eigenvalues --   -1.09449  -1.06134  -1.05989  -1.05242  -1.03045
 Alpha  occ. eigenvalues --   -1.01775  -0.92509  -0.89715  -0.89002  -0.88516
 Alpha  occ. eigenvalues --   -0.88247  -0.87710  -0.86796  -0.85262  -0.82476
 Alpha  occ. eigenvalues --   -0.81560  -0.80053  -0.77630  -0.77053  -0.74937
 Alpha  occ. eigenvalues --   -0.74370  -0.73275  -0.71278  -0.68486  -0.67986
 Alpha  occ. eigenvalues --   -0.66427  -0.65249  -0.64652  -0.62456  -0.61542
 Alpha  occ. eigenvalues --   -0.59901  -0.58670  -0.57986  -0.57654  -0.57060
 Alpha  occ. eigenvalues --   -0.55888  -0.55139  -0.54515  -0.54189  -0.53219
 Alpha  occ. eigenvalues --   -0.52532  -0.52412  -0.51328  -0.50829  -0.50104
 Alpha  occ. eigenvalues --   -0.49682  -0.49202  -0.48689  -0.48363  -0.47749
 Alpha  occ. eigenvalues --   -0.47723  -0.46724  -0.46325  -0.45888  -0.45712
 Alpha  occ. eigenvalues --   -0.45090  -0.44754  -0.44478  -0.44203  -0.43907
 Alpha  occ. eigenvalues --   -0.43267  -0.43019  -0.42295  -0.41547  -0.40629
 Alpha  occ. eigenvalues --   -0.40090  -0.39966  -0.39384  -0.38883  -0.38503
 Alpha  occ. eigenvalues --   -0.38078  -0.36805  -0.36454  -0.36177  -0.35930
 Alpha  occ. eigenvalues --   -0.34974  -0.34517  -0.34109  -0.34054  -0.32041
 Alpha  occ. eigenvalues --   -0.31371  -0.31316  -0.30588  -0.27027  -0.26452
 Alpha  occ. eigenvalues --   -0.24012  -0.23777  -0.23573  -0.21062  -0.20659
 Alpha  occ. eigenvalues --   -0.19808  -0.16624
 Alpha virt. eigenvalues --   -0.13636  -0.07408  -0.07155  -0.04567  -0.02591
 Alpha virt. eigenvalues --   -0.00712   0.00012   0.00279   0.00861   0.01013
 Alpha virt. eigenvalues --    0.02065   0.03031   0.03915   0.03991   0.04912

 Mulliken atomic charges:
              1
     1  C   -0.009298
     2  C    0.192607
     3  C   -0.128496
     4  C    0.050060
     5  C   -0.241032
     6  C    0.095296
     7  C    0.169437
     8  C    0.084689
     9  N   -0.258137
    10  C    0.088354
    11  C    0.045079
    12  C    0.157252
    13  C   -0.114057
    14  O   -0.320022
    15  C    0.129138
    16  C   -0.097871
    17  C    0.009499
    18  C    0.038665
    19  C    0.095854
    20  N   -0.314362
    21  C    0.081725
    22  C    0.186505
    23  C   -0.155848
    24  C    0.268354
    25  C   -0.010382
    26  C    0.108765
    27  C   -0.252007
    28  C    0.050812
    29  S    0.989119
    30  S    0.994520
    31  O   -0.518441
    32  O   -0.516462
    33  O   -0.522503
    34  O   -0.410896
    35  O   -0.325179
    36  O   -0.437888
    37  H   -0.017685
    38  H   -0.020421
    39  H    0.004481
    40  H    0.079924
    41  H    0.081382
    42  H    0.058115
    43  H    0.063353
    44  H    0.031225
    45  H    0.024940
    46  H    0.026100
    47  H    0.011835
    48  H   -0.026307
    49  H    0.032216
    50  H    0.026473
    51  H    0.047950
    52  H    0.045570
    53  H    0.079122
    54  H    0.079646
    55  H   -0.010872
    56  H    0.005134
    57  H   -0.015328
    58  H    0.190300
 Sum of Mulliken atomic charges =   0.00000

 Dipole moment (field-independent basis, Debye):
    X=             22.7561    Y=             16.8718    Z=              1.9731  Tot=             28.3970
 Quadrupole moment (field-independent basis, Debye-Ang):
   XX=           -438.4675   YY=           -227.6197   ZZ=           -224.7619
   XY=            -75.8089   XZ=              3.2448   YZ=            -15.6165

 Normal termination of Gaussian 09 at Sat Mar 21 14:38:06 2015.
