 Gaussian 09, Revision B.01,
 Gaussian 09:  EM64L-G09RevB.01 12-Aug-2010

 ------------------------------------------------------
 # opt=modredundant B3LYP/cc-pVDZ Geom=PrintInputOrient
 ------------------------------------------------------

 -------------------------------
 CY3 Dihedral Scan at MP2/6-31G*
 -------------------------------
 Symbolic Z-matrix:
 Charge =  0 Multiplicity = 1

 SCF Done:  E(RB3LYP) =  -2398.26711824     A.U. after   22 cycles
 SCF Done:  E(RB3LYP) =  -2398.26712608     A.U. after    8 cycles
 Optimization completed.
    -- Stationary point found.
 SCF Done:  E(RB3LYP) =  -2398.26295405     A.U. after   14 cycles
 SCF Done:  E(RB3LYP) =  -2398.26457097     A.U. after   13 cycles
 SCF Done:  E(RB3LYP) =  -2398.26471638     A.U. after   12 cycles
 SCF Done:  E(RB3LYP) =  -2398.26475947     A.U. after   11 cycles
 SCF Done:  E(RB3LYP) =  -2398.26476832     A.U. after   11 cycles
 SCF Done:  E(RB3LYP) =  -2398.26477244     A.U. after   11 cycles
 SCF Done:  E(RB3LYP) =  -2398.26477437     A.U. after   11 cycles
 SCF Done:  E(RB3LYP) =  -2398.26477514     A.U. after    8 cycles
 SCF Done:  E(RB3LYP) =  -2398.26477535     A.U. after    8 cycles
 SCF Done:  E(RB3LYP) =  -2398.26477538     A.U. after    7 cycles
 SCF Done:  E(RB3LYP) =  -2398.26477542     A.U. after    7 cycles
 Optimization completed.
    -- Stationary point found.
 SCF Done:  E(RB3LYP) =  -2398.25569781     A.U. after   14 cycles
 SCF Done:  E(RB3LYP) =  -2398.25772528     A.U. after   14 cycles
 SCF Done:  E(RB3LYP) =  -2398.25781121     A.U. after   13 cycles
 SCF Done:  E(RB3LYP) =  -2398.25782946     A.U. after   11 cycles
 SCF Done:  E(RB3LYP) =  -2398.25783679     A.U. after   11 cycles
 SCF Done:  E(RB3LYP) =  -2398.25783842     A.U. after    9 cycles
 SCF Done:  E(RB3LYP) =  -2398.25783860     A.U. after    8 cycles
 Optimization completed.
    -- Stationary point found.

                         Standard orientation:
 ---------------------------------------------------------------------
 Center     Atomic      Atomic             Coordinates (Angstroms)
 Number     Number       Type             X           Y           Z
 ---------------------------------------------------------------------
      1          6           0       -5.996202    1.100020   -0.549519
      2          6           0       -4.701212    0.778638   -0.137278
      3          6           0       -4.328964   -0.518098    0.262071
      4          6           0       -5.265863   -1.537740    0.256668
      5          6           0       -6.579985   -1.232340   -0.135544
      6          6           0       -6.933394    0.064303   -0.543042
      7          6           0       -2.859335   -0.496664    0.612032
      8          6           0       -2.482882    0.948545    0.388027
      9          7           0       -3.563166    1.616341   -0.052272
     10          6           0       -3.565534    3.031368   -0.463481
     11          6           0       -2.147160    3.575776   -0.685288
     12          6           0       -1.276565    3.112084    0.488624
     13          6           0       -1.237578    1.596133    0.518723
     14          8           0        0.002349    3.721635    0.609575
     15          6           0        1.095865    3.097438   -0.050560
     16          6           0        1.158556    1.600580    0.212821
     17          6           0       -0.016372    0.969387    0.689234
     18          6           0        2.384070    3.774607    0.406982
     19          6           0        3.587125    3.130083   -0.283444
     20          7           0        3.544176    1.674440   -0.132746
     21          6           0        2.394436    0.986486    0.180327
     22          6           0        2.754436   -0.472860    0.391094
     23          6           0        4.240220   -0.491906    0.109995
     24          6           0        4.650367    0.820392   -0.201139
     25          6           0        5.972171    1.132081   -0.522913
     26          6           0        6.903617    0.087196   -0.517017
     27          6           0        6.496445   -1.207662   -0.191189
     28          6           0        5.161808   -1.523881    0.115933
     29         16           0       -7.858867   -2.555709   -0.072523
     30         16           0        7.710294   -2.523892   -0.206273
     31          8           0       -8.389386   -2.374482    1.319508
     32          8           0       -8.802625   -2.176468   -1.172080
     33          8           0       -7.059877   -3.805899   -0.291086
     34          8           0        8.897187   -2.069415   -0.948934
     35          8           0        8.082142   -2.548716    1.418635
     36          8           0        7.051672   -3.814759   -0.501672
     37          1           0       -6.274097    2.108191   -0.862915
     38          1           0       -5.033177   -2.569606    0.527744
     39          1           0       -7.961774    0.231027   -0.868215
     40          1           0       -2.260304   -1.163902   -0.029945
     41          1           0       -2.658334   -0.791552    1.655827
     42          1           0       -4.088516    3.606199    0.319092
     43          1           0       -4.166476    3.105196   -1.380726
     44          1           0       -2.192678    4.673775   -0.730482
     45          1           0       -1.738199    3.210199   -1.641208
     46          1           0       -1.786140    3.434307    1.415520
     47          1           0        0.992025    3.259967   -1.146003
     48          1           0        0.010433   -0.104793    0.897853
     49          1           0        2.466777    3.674945    1.501144
     50          1           0        2.355872    4.846946    0.166340
     51          1           0        4.524105    3.494640    0.162950
     52          1           0        3.611256    3.384194   -1.358265
     53          1           0        2.186700   -1.124642   -0.292639
     54          1           0        2.520744   -0.802179    1.417506
     55          1           0        6.280412    2.144685   -0.784537
     56          1           0        7.947038    0.269213   -0.775102
     57          1           0        4.880158   -2.554053    0.338026
     58          1           0        8.194175   -3.493556    1.639654
 ---------------------------------------------------------------------

 The electronic state is 1-A.
 Alpha  occ. eigenvalues --  -89.15005 -89.01707 -19.21176 -19.19986 -19.16728
 Alpha  occ. eigenvalues --  -19.16631 -19.02770 -19.02746 -19.02688 -14.45697
 Alpha  occ. eigenvalues --  -14.44775 -10.30780 -10.30779 -10.30059 -10.29992
 Alpha  occ. eigenvalues --  -10.29716 -10.29562 -10.29281 -10.27075 -10.26634
 Alpha  occ. eigenvalues --  -10.26567 -10.26038 -10.25867 -10.25670 -10.25460
 Alpha  occ. eigenvalues --  -10.25359 -10.25255 -10.25248 -10.25173 -10.25026
 Alpha  occ. eigenvalues --  -10.24808 -10.22101 -10.21366 -10.19529 -10.19306
 Alpha  occ. eigenvalues --  -10.18840  -8.18167  -8.04543  -6.14591  -6.14435
 Alpha  occ. eigenvalues --   -6.14296  -6.00873  -6.00846  -6.00837  -1.15839
 Alpha  occ. eigenvalues --   -1.09799  -1.06145  -1.05863  -1.05324  -1.03130
 Alpha  occ. eigenvalues --   -1.01607  -0.92635  -0.89738  -0.88953  -0.88348
 Alpha  occ. eigenvalues --   -0.88078  -0.87852  -0.86812  -0.85155  -0.82564
 Alpha  occ. eigenvalues --   -0.81670  -0.80116  -0.77662  -0.77024  -0.75012
 Alpha  occ. eigenvalues --   -0.74387  -0.73301  -0.71289  -0.68713  -0.68095
 Alpha  occ. eigenvalues --   -0.66378  -0.65240  -0.64703  -0.62530  -0.61532
 Alpha  occ. eigenvalues --   -0.60019  -0.58716  -0.58101  -0.57830  -0.57058
 Alpha  occ. eigenvalues --   -0.56005  -0.54903  -0.54604  -0.54218  -0.53321
 Alpha  occ. eigenvalues --   -0.52468  -0.52356  -0.51190  -0.50907  -0.50245
 Alpha  occ. eigenvalues --   -0.49831  -0.49256  -0.48778  -0.48347  -0.47873
 Alpha  occ. eigenvalues --   -0.47671  -0.46810  -0.46485  -0.45831  -0.45786
 Alpha  occ. eigenvalues --   -0.45236  -0.44850  -0.44605  -0.44260  -0.43853
 Alpha  occ. eigenvalues --   -0.43368  -0.43233  -0.42312  -0.41686  -0.40784
 Alpha  occ. eigenvalues --   -0.40146  -0.40057  -0.39397  -0.38890  -0.38287
 Alpha  occ. eigenvalues --   -0.37919  -0.36663  -0.36304  -0.36194  -0.35948
 Alpha  occ. eigenvalues --   -0.35013  -0.34687  -0.34203  -0.34158  -0.32106
 Alpha  occ. eigenvalues --   -0.31452  -0.31323  -0.30617  -0.27156  -0.26658
 Alpha  occ. eigenvalues --   -0.23827  -0.23640  -0.23415  -0.20842  -0.20600
 Alpha  occ. eigenvalues --   -0.19600  -0.16476
 Alpha virt. eigenvalues --   -0.13834  -0.07435  -0.07251  -0.04498  -0.02003
 Alpha virt. eigenvalues --   -0.00475  -0.00274   0.00145   0.00794   0.00943
 Alpha virt. eigenvalues --    0.02066   0.02897   0.03469   0.03959   0.04728

 Mulliken atomic charges:
              1
     1  C   -0.009453
     2  C    0.226559
     3  C   -0.134775
     4  C    0.043244
     5  C   -0.243217
     6  C    0.110295
     7  C    0.182478
     8  C    0.082890
     9  N   -0.268706
    10  C    0.089634
    11  C    0.048496
    12  C    0.138825
    13  C   -0.107149
    14  O   -0.312228
    15  C    0.148501
    16  C   -0.120977
    17  C    0.013167
    18  C    0.037688
    19  C    0.096351
    20  N   -0.312273
    21  C    0.075481
    22  C    0.179445
    23  C   -0.152935
    24  C    0.264646
    25  C   -0.008399
    26  C    0.108711
    27  C   -0.251644
    28  C    0.050507
    29  S    0.986321
    30  S    0.994850
    31  O   -0.516830
    32  O   -0.520393
    33  O   -0.525092
    34  O   -0.410557
    35  O   -0.325229
    36  O   -0.437273
    37  H   -0.028644
    38  H   -0.024815
    39  H   -0.006596
    40  H    0.079855
    41  H    0.080757
    42  H    0.058367
    43  H    0.060668
    44  H    0.030244
    45  H    0.025070
    46  H    0.025799
    47  H    0.008632
    48  H   -0.017910
    49  H    0.033328
    50  H    0.030191
    51  H    0.048957
    52  H    0.045862
    53  H    0.079609
    54  H    0.078937
    55  H   -0.010668
    56  H    0.005632
    57  H   -0.014785
    58  H    0.190551
 Sum of Mulliken atomic charges =   0.00000

 Dipole moment (field-independent basis, Debye):
    X=             23.3332    Y=             17.0476    Z=              1.3038  Tot=             28.9267
 Quadrupole moment (field-independent basis, Debye-Ang):
   XX=           -436.3160   YY=           -227.5335   ZZ=           -224.6695
   XY=            -74.8733   XZ=             14.9123   YZ=            -17.3214

 Normal termination of Gaussian 09 at Thu Mar 19 08:29:48 2015.
