 Gaussian 09, Revision B.01,
 Gaussian 09:  EM64L-G09RevB.01 12-Aug-2010

 ------------------------------------------------------
 # opt=modredundant B3LYP/cc-pVDZ Geom=PrintInputOrient
 ------------------------------------------------------

 -------------------------------
 CY3 Dihedral Scan at MP2/6-31G*
 -------------------------------
 Symbolic Z-matrix:
 Charge =  0 Multiplicity = 1

 SCF Done:  E(RB3LYP) =  -2398.26711824     A.U. after   22 cycles
 SCF Done:  E(RB3LYP) =  -2398.26712606     A.U. after    8 cycles
 Optimization completed.
    -- Stationary point found.
 SCF Done:  E(RB3LYP) =  -2398.26270552     A.U. after   15 cycles
 SCF Done:  E(RB3LYP) =  -2398.26467019     A.U. after   12 cycles
 SCF Done:  E(RB3LYP) =  -2398.26499231     A.U. after   12 cycles
 SCF Done:  E(RB3LYP) =  -2398.26509853     A.U. after   12 cycles
 SCF Done:  E(RB3LYP) =  -2398.26516978     A.U. after   12 cycles
 SCF Done:  E(RB3LYP) =  -2398.26522306     A.U. after   12 cycles
 SCF Done:  E(RB3LYP) =  -2398.26525833     A.U. after   12 cycles
 SCF Done:  E(RB3LYP) =  -2398.26528473     A.U. after   12 cycles
 SCF Done:  E(RB3LYP) =  -2398.26636554     A.U. after    7 cycles
 SCF Done:  E(RB3LYP) =  -2398.26636557     A.U. after    7 cycles
 Optimization completed.
    -- Stationary point found.
 SCF Done:  E(RB3LYP) =  -2398.26169271     A.U. after   19 cycles
 SCF Done:  E(RB3LYP) =  -2398.26382388     A.U. after   12 cycles
 SCF Done:  E(RB3LYP) =  -2398.26405127     A.U. after   12 cycles
 SCF Done:  E(RB3LYP) =  -2398.26408552     A.U. after   11 cycles
 SCF Done:  E(RB3LYP) =  -2398.26409597     A.U. after   11 cycles
 SCF Done:  E(RB3LYP) =  -2398.26409712     A.U. after    8 cycles
 SCF Done:  E(RB3LYP) =  -2398.26409734     A.U. after    8 cycles
 SCF Done:  E(RB3LYP) =  -2398.26409736     A.U. after    7 cycles
 Optimization completed.
    -- Stationary point found.

                         Standard orientation:
 ---------------------------------------------------------------------
 Center     Atomic      Atomic             Coordinates (Angstroms)
 Number     Number       Type             X           Y           Z
 ---------------------------------------------------------------------
      1          6           0       -5.957665    1.039142    0.643995
      2          6           0       -4.667106    0.783605    0.175247
      3          6           0       -4.277970   -0.463804   -0.345249
      4          6           0       -5.193106   -1.501338   -0.408065
      5          6           0       -6.491493   -1.272998    0.077280
      6          6           0       -6.868772   -0.017230    0.581478
      7          6           0       -2.827263   -0.365722   -0.754523
      8          6           0       -2.464730    1.051365   -0.376095
      9          7           0       -3.553988    1.655758    0.118647
     10          6           0       -3.580692    3.048727    0.583243
     11          6           0       -2.410001    3.848162    0.014189
     12          6           0       -1.105306    3.076591    0.183540
     13          6           0       -1.215635    1.709255   -0.467743
     14          8           0       -0.059771    3.859574   -0.378543
     15          6           0        1.226135    3.254397   -0.481142
     16          6           0        1.199946    1.737275   -0.587201
     17          6           0       -0.037844    1.084207   -0.820647
     18          6           0        2.190852    3.684931    0.631654
     19          6           0        3.592654    3.148110    0.323950
     20          7           0        3.545197    1.727307   -0.035888
     21          6           0        2.396085    1.074762   -0.426326
     22          6           0        2.715406   -0.399731   -0.591264
     23          6           0        4.195572   -0.454129   -0.287407
     24          6           0        4.630251    0.846561    0.038762
     25          6           0        5.958466    1.129068    0.361165
     26          6           0        6.865797    0.063058    0.361923
     27          6           0        6.427648   -1.225721    0.053133
     28          6           0        5.093065   -1.507020   -0.286590
     29         16           0       -7.696055   -2.665794    0.095506
     30         16           0        7.617582   -2.563715    0.047329
     31          8           0       -7.481228   -3.208417    1.478154
     32          8           0       -9.011548   -1.985080   -0.127351
     33          8           0       -7.211875   -3.547132   -1.016857
     34          8           0        8.974113   -1.993619    0.008423
     35          8           0        7.342027   -3.162963    1.577902
     36          8           0        7.186254   -3.618626   -0.895473
     37          1           0       -6.251194    2.013229    1.039972
     38          1           0       -4.961391   -2.485161   -0.821370
     39          1           0       -7.901565    0.107967    0.911135
     40          1           0       -2.675235   -0.531028   -1.834690
     41          1           0       -2.182971   -1.088466   -0.227045
     42          1           0       -3.567687    3.036389    1.686574
     43          1           0       -4.539951    3.485242    0.272310
     44          1           0       -2.350686    4.819237    0.526116
     45          1           0       -2.561927    4.044236   -1.059195
     46          1           0       -0.912171    2.924808    1.267851
     47          1           0        1.621672    3.646281   -1.436627
     48          1           0       -0.045526    0.039885   -1.145866
     49          1           0        1.839048    3.301962    1.603562
     50          1           0        2.232527    4.781912    0.694745
     51          1           0        4.248215    3.258601    1.200844
     52          1           0        4.054539    3.712192   -0.505771
     53          1           0        2.478965   -0.744259   -1.611685
     54          1           0        2.125575   -1.021234    0.102454
     55          1           0        6.295005    2.140006    0.592271
     56          1           0        7.918836    0.227598    0.591016
     57          1           0        4.796569   -2.523646   -0.548269
     58          1           0        7.386910   -4.134090    1.483121
 ---------------------------------------------------------------------

 The electronic state is 1-A.
 Alpha  occ. eigenvalues --  -89.14983 -89.01768 -19.21140 -19.19768 -19.16707
 Alpha  occ. eigenvalues --  -19.16605 -19.02836 -19.02806 -19.02742 -14.45823
 Alpha  occ. eigenvalues --  -14.44730 -10.30889 -10.30838 -10.30015 -10.29953
 Alpha  occ. eigenvalues --  -10.29687 -10.29525 -10.29193 -10.27100 -10.26604
 Alpha  occ. eigenvalues --  -10.26597 -10.26014 -10.25843 -10.25634 -10.25426
 Alpha  occ. eigenvalues --  -10.25417 -10.25297 -10.25148 -10.25041 -10.24895
 Alpha  occ. eigenvalues --  -10.24837 -10.22177 -10.21447 -10.19583 -10.19392
 Alpha  occ. eigenvalues --  -10.18923  -8.18144  -8.04604  -6.14567  -6.14412
 Alpha  occ. eigenvalues --   -6.14272  -6.00934  -6.00907  -6.00898  -1.15818
 Alpha  occ. eigenvalues --   -1.09603  -1.06099  -1.06017  -1.05294  -1.03107
 Alpha  occ. eigenvalues --   -1.01669  -0.92587  -0.89737  -0.89082  -0.88413
 Alpha  occ. eigenvalues --   -0.88137  -0.87768  -0.86845  -0.85214  -0.82552
 Alpha  occ. eigenvalues --   -0.81580  -0.80103  -0.77597  -0.77170  -0.74929
 Alpha  occ. eigenvalues --   -0.74490  -0.73304  -0.71332  -0.68474  -0.68055
 Alpha  occ. eigenvalues --   -0.66346  -0.65317  -0.64718  -0.62676  -0.61689
 Alpha  occ. eigenvalues --   -0.59748  -0.58700  -0.58029  -0.57622  -0.57239
 Alpha  occ. eigenvalues --   -0.56000  -0.55080  -0.54604  -0.54156  -0.53294
 Alpha  occ. eigenvalues --   -0.52819  -0.52158  -0.51347  -0.50954  -0.50315
 Alpha  occ. eigenvalues --   -0.49662  -0.49306  -0.48807  -0.48144  -0.47882
 Alpha  occ. eigenvalues --   -0.47733  -0.46873  -0.46716  -0.45891  -0.45566
 Alpha  occ. eigenvalues --   -0.45146  -0.44960  -0.44487  -0.44059  -0.43952
 Alpha  occ. eigenvalues --   -0.43762  -0.42885  -0.42308  -0.41603  -0.40731
 Alpha  occ. eigenvalues --   -0.40051  -0.39930  -0.39432  -0.38903  -0.38367
 Alpha  occ. eigenvalues --   -0.38140  -0.36586  -0.36358  -0.36220  -0.35812
 Alpha  occ. eigenvalues --   -0.35218  -0.34753  -0.34181  -0.34097  -0.32117
 Alpha  occ. eigenvalues --   -0.31421  -0.31205  -0.30758  -0.27175  -0.26725
 Alpha  occ. eigenvalues --   -0.23951  -0.23706  -0.23506  -0.20918  -0.20642
 Alpha  occ. eigenvalues --   -0.19680  -0.16537
 Alpha virt. eigenvalues --   -0.13736  -0.07463  -0.07227  -0.04523  -0.02119
 Alpha virt. eigenvalues --   -0.00607  -0.00300   0.00236   0.00846   0.00896
 Alpha virt. eigenvalues --    0.02122   0.02887   0.03446   0.04167   0.04780

 Mulliken atomic charges:
              1
     1  C   -0.009024
     2  C    0.223421
     3  C   -0.131293
     4  C    0.040508
     5  C   -0.242945
     6  C    0.112701
     7  C    0.180449
     8  C    0.090935
     9  N   -0.265173
    10  C    0.088589
    11  C    0.050770
    12  C    0.120527
    13  C   -0.069815
    14  O   -0.318153
    15  C    0.156593
    16  C   -0.147008
    17  C    0.004578
    18  C    0.047675
    19  C    0.091210
    20  N   -0.316787
    21  C    0.081932
    22  C    0.182931
    23  C   -0.153481
    24  C    0.267681
    25  C   -0.009253
    26  C    0.108349
    27  C   -0.251520
    28  C    0.050997
    29  S    0.986132
    30  S    0.994925
    31  O   -0.517883
    32  O   -0.519814
    33  O   -0.524370
    34  O   -0.410623
    35  O   -0.324791
    36  O   -0.437920
    37  H   -0.028292
    38  H   -0.024907
    39  H   -0.006372
    40  H    0.084490
    41  H    0.076489
    42  H    0.057452
    43  H    0.062794
    44  H    0.028463
    45  H    0.034545
    46  H    0.010108
    47  H    0.023115
    48  H   -0.022896
    49  H    0.022447
    50  H    0.028831
    51  H    0.047505
    52  H    0.046505
    53  H    0.080170
    54  H    0.077945
    55  H   -0.011003
    56  H    0.005617
    57  H   -0.014962
    58  H    0.190901
 Sum of Mulliken atomic charges =   0.00000

 Dipole moment (field-independent basis, Debye):
    X=             22.0917    Y=             17.0539    Z=              1.2349  Tot=             27.9357
 Quadrupole moment (field-independent basis, Debye-Ang):
   XX=           -434.9375   YY=           -226.2740   ZZ=           -224.9950
   XY=            -76.9500   XZ=             10.4083   YZ=              3.2768

 Normal termination of Gaussian 09 at Wed Mar 18 11:53:46 2015.
