 Gaussian 09, Revision B.01,
 Gaussian 09:  EM64L-G09RevB.01 12-Aug-2010

 ------------------------------------------------------
 # opt=modredundant B3LYP/cc-pVDZ Geom=PrintInputOrient
 ------------------------------------------------------

 -------------------------------
 CY3 Dihedral Scan at MP2/6-31G*
 -------------------------------
 Symbolic Z-matrix:
 Charge =  0 Multiplicity = 1

 SCF Done:  E(RB3LYP) =  -2398.26711824     A.U. after   22 cycles
 SCF Done:  E(RB3LYP) =  -2398.26712608     A.U. after    8 cycles
 Optimization completed.
    -- Stationary point found.
 SCF Done:  E(RB3LYP) =  -2398.26171395     A.U. after   14 cycles
 SCF Done:  E(RB3LYP) =  -2398.26525505     A.U. after   13 cycles
 SCF Done:  E(RB3LYP) =  -2398.26562344     A.U. after   12 cycles
 SCF Done:  E(RB3LYP) =  -2398.26567103     A.U. after   11 cycles
 SCF Done:  E(RB3LYP) =  -2398.26568318     A.U. after   11 cycles
 SCF Done:  E(RB3LYP) =  -2398.26568588     A.U. after    9 cycles
 SCF Done:  E(RB3LYP) =  -2398.26568694     A.U. after    8 cycles
 SCF Done:  E(RB3LYP) =  -2398.26568759     A.U. after    8 cycles
 SCF Done:  E(RB3LYP) =  -2398.26568854     A.U. after    8 cycles
 SCF Done:  E(RB3LYP) =  -2398.26568858     A.U. after    8 cycles
 Optimization completed.
    -- Stationary point found.
 SCF Done:  E(RB3LYP) =  -2398.25718138     A.U. after   13 cycles
 SCF Done:  E(RB3LYP) =  -2398.26140439     A.U. after   25 cycles
 SCF Done:  E(RB3LYP) =  -2398.26167715     A.U. after   12 cycles
 SCF Done:  E(RB3LYP) =  -2398.26168719     A.U. after   12 cycles
 SCF Done:  E(RB3LYP) =  -2398.26169004     A.U. after   11 cycles
 SCF Done:  E(RB3LYP) =  -2398.26169050     A.U. after    8 cycles
 SCF Done:  E(RB3LYP) =  -2398.26169064     A.U. after    8 cycles
 SCF Done:  E(RB3LYP) =  -2398.26169063     A.U. after    7 cycles
 Optimization completed.
    -- Stationary point found.

                         Standard orientation:
 ---------------------------------------------------------------------
 Center     Atomic      Atomic             Coordinates (Angstroms)
 Number     Number       Type             X           Y           Z
 ---------------------------------------------------------------------
      1          6           0        6.087041    1.118236   -0.170701
      2          6           0        4.747941    0.790497   -0.396526
      3          6           0        4.278571   -0.534741   -0.376633
      4          6           0        5.152310   -1.575021   -0.107824
      5          6           0        6.501389   -1.266453    0.132731
      6          6           0        6.956179    0.062203    0.110693
      7          6           0        2.795635   -0.510240   -0.660009
      8          6           0        2.499789    0.968423   -0.763271
      9          7           0        3.660338    1.645663   -0.712486
     10          6           0        3.693129    3.115239   -0.630471
     11          6           0        2.474727    3.626415    0.135204
     12          6           0        1.240036    3.138372   -0.640878
     13          6           0        1.240514    1.618475   -0.709897
     14          8           0        0.020070    3.722969   -0.199877
     15          6           0       -0.904063    2.917652    0.530133
     16          6           0       -1.112279    1.560365   -0.116261
     17          6           0        0.050733    0.921021   -0.607509
     18          6           0       -2.210729    3.707249    0.588297
     19          6           0       -3.339859    2.875688    1.194971
     20          7           0       -3.439930    1.584321    0.515987
     21          6           0       -2.359910    0.977279   -0.080451
     22          6           0       -2.808928   -0.363559   -0.629680
     23          6           0       -4.260055   -0.424906   -0.209856
     24          6           0       -4.574467    0.766226    0.476107
     25          6           0       -5.840204    1.003540    1.014091
     26          6           0       -6.815056    0.014798    0.837163
     27          6           0       -6.504489   -1.154395    0.140616
     28          6           0       -5.223882   -1.402218   -0.382679
     29         16           0        7.687773   -2.637727    0.453868
     30         16           0       -7.769835   -2.406469   -0.051389
     31          8           0        8.218176   -2.887323   -0.927655
     32          8           0        8.663716   -2.029742    1.413570
     33          8           0        6.809403   -3.721279    1.004981
     34          8           0       -8.854831   -2.137855    0.906410
     35          8           0       -8.302107   -2.002695   -1.578862
     36          8           0       -7.145349   -3.742002   -0.168928
     37          1           0        6.449169    2.147683   -0.203061
     38          1           0        4.842845   -2.620472   -0.047290
     39          1           0        8.008783    0.243938    0.334134
     40          1           0        2.195972   -0.983134    0.131983
     41          1           0        2.541610   -1.021896   -1.605813
     42          1           0        3.721335    3.525980   -1.652952
     43          1           0        4.629002    3.397231   -0.133351
     44          1           0        2.490049    4.725435    0.162607
     45          1           0        2.475559    3.248471    1.170015
     46          1           0        1.349187    3.512166   -1.676898
     47          1           0       -0.516996    2.758197    1.558288
     48          1           0        0.027550   -0.149661   -0.829085
     49          1           0       -2.471143    4.004523   -0.440101
     50          1           0       -2.074871    4.625886    1.176537
     51          1           0       -4.298855    3.401763    1.085296
     52          1           0       -3.177050    2.703478    2.274740
     53          1           0       -2.211070   -1.188984   -0.207783
     54          1           0       -2.685766   -0.406593   -1.724193
     55          1           0       -6.073168    1.914709    1.565603
     56          1           0       -7.817201    0.140548    1.247461
     57          1           0       -5.012202   -2.343482   -0.891692
     58          1           0       -8.479675   -2.855967   -2.019887
 ---------------------------------------------------------------------

 The electronic state is 1-A.
 Alpha  occ. eigenvalues --  -89.14982 -89.01759 -19.21158 -19.19673 -19.16704
 Alpha  occ. eigenvalues --  -19.16607 -19.02829 -19.02780 -19.02758 -14.45615
 Alpha  occ. eigenvalues --  -14.44737 -10.30873 -10.30781 -10.29966 -10.29937
 Alpha  occ. eigenvalues --  -10.29589 -10.29567 -10.28969 -10.27090 -10.26604
 Alpha  occ. eigenvalues --  -10.26489 -10.26016 -10.25850 -10.25640 -10.25498
 Alpha  occ. eigenvalues --  -10.25461 -10.25427 -10.25172 -10.24941 -10.24679
 Alpha  occ. eigenvalues --  -10.24646 -10.22094 -10.21410 -10.19545 -10.19360
 Alpha  occ. eigenvalues --  -10.18888  -8.18144  -8.04594  -6.14568  -6.14412
 Alpha  occ. eigenvalues --   -6.14273  -6.00924  -6.00898  -6.00889  -1.15816
 Alpha  occ. eigenvalues --   -1.09405  -1.06148  -1.05831  -1.05304  -1.03106
 Alpha  occ. eigenvalues --   -1.01659  -0.92600  -0.89669  -0.89041  -0.88395
 Alpha  occ. eigenvalues --   -0.88136  -0.87777  -0.86723  -0.85105  -0.82515
 Alpha  occ. eigenvalues --   -0.81633  -0.80003  -0.77553  -0.77067  -0.74954
 Alpha  occ. eigenvalues --   -0.74279  -0.73222  -0.71285  -0.68387  -0.68015
 Alpha  occ. eigenvalues --   -0.66422  -0.65223  -0.64736  -0.62560  -0.61618
 Alpha  occ. eigenvalues --   -0.59933  -0.58746  -0.58158  -0.57659  -0.57053
 Alpha  occ. eigenvalues --   -0.55978  -0.54960  -0.54446  -0.54132  -0.53225
 Alpha  occ. eigenvalues --   -0.52600  -0.52213  -0.51329  -0.50916  -0.50159
 Alpha  occ. eigenvalues --   -0.49668  -0.49077  -0.48699  -0.48367  -0.47830
 Alpha  occ. eigenvalues --   -0.47568  -0.46760  -0.46477  -0.45902  -0.45749
 Alpha  occ. eigenvalues --   -0.45215  -0.44681  -0.44590  -0.44271  -0.43776
 Alpha  occ. eigenvalues --   -0.43207  -0.42911  -0.42180  -0.41645  -0.40670
 Alpha  occ. eigenvalues --   -0.40150  -0.39865  -0.39501  -0.38902  -0.38370
 Alpha  occ. eigenvalues --   -0.37964  -0.36833  -0.36340  -0.36222  -0.35836
 Alpha  occ. eigenvalues --   -0.34849  -0.34651  -0.34176  -0.34148  -0.32104
 Alpha  occ. eigenvalues --   -0.31445  -0.31390  -0.30530  -0.27140  -0.26664
 Alpha  occ. eigenvalues --   -0.23974  -0.23694  -0.23509  -0.20908  -0.20627
 Alpha  occ. eigenvalues --   -0.19655  -0.16528
 Alpha virt. eigenvalues --   -0.13880  -0.07513  -0.07240  -0.04740  -0.02032
 Alpha virt. eigenvalues --   -0.00503  -0.00017   0.00286   0.00873   0.01042
 Alpha virt. eigenvalues --    0.02330   0.02948   0.03931   0.04178   0.04873

 Mulliken atomic charges:
              1
     1  C   -0.002018
     2  C    0.205962
     3  C   -0.127216
     4  C    0.042012
     5  C   -0.242806
     6  C    0.114996
     7  C    0.178318
     8  C    0.066424
     9  N   -0.255962
    10  C    0.100651
    11  C    0.040666
    12  C    0.162379
    13  C   -0.121710
    14  O   -0.321268
    15  C    0.134996
    16  C   -0.105984
    17  C    0.015924
    18  C    0.038185
    19  C    0.095403
    20  N   -0.312954
    21  C    0.084259
    22  C    0.186517
    23  C   -0.155754
    24  C    0.267645
    25  C   -0.009386
    26  C    0.109082
    27  C   -0.251743
    28  C    0.051250
    29  S    0.986320
    30  S    0.994693
    31  O   -0.515889
    32  O   -0.520447
    33  O   -0.525011
    34  O   -0.410384
    35  O   -0.325276
    36  O   -0.437279
    37  H   -0.022523
    38  H   -0.024831
    39  H   -0.007027
    40  H    0.075335
    41  H    0.081679
    42  H    0.052146
    43  H    0.051202
    44  H    0.030237
    45  H    0.027859
    46  H    0.024974
    47  H    0.013664
    48  H   -0.022329
    49  H    0.031277
    50  H    0.027520
    51  H    0.048254
    52  H    0.047204
    53  H    0.080261
    54  H    0.079726
    55  H   -0.010145
    56  H    0.005677
    57  H   -0.015088
    58  H    0.190333
 Sum of Mulliken atomic charges =   0.00000

 Dipole moment (field-independent basis, Debye):
    X=            -22.3497    Y=             17.4929    Z=             -3.4651  Tot=             28.5923
 Quadrupole moment (field-independent basis, Debye-Ang):
   XX=           -423.0802   YY=           -235.7891   ZZ=           -220.1154
   XY=             76.9252   XZ=             -8.3889   YZ=             18.0897

 Normal termination of Gaussian 09 at Sat Mar 21 02:17:24 2015.
