 Gaussian 09, Revision B.01,
 Gaussian 09:  EM64L-G09RevB.01 12-Aug-2010

 ------------------------------------------------------
 # opt=modredundant B3LYP/cc-pVDZ Geom=PrintInputOrient
 ------------------------------------------------------

 -------------------------------
 CY3 Dihedral Scan at MP2/6-31G*
 -------------------------------
 Symbolic Z-matrix:
 Charge =  0 Multiplicity = 1

 SCF Done:  E(RB3LYP) =  -2398.26711824     A.U. after   22 cycles
 SCF Done:  E(RB3LYP) =  -2398.26712608     A.U. after    8 cycles
 Optimization completed.
    -- Stationary point found.
 SCF Done:  E(RB3LYP) =  -2398.26145916     A.U. after   16 cycles
 SCF Done:  E(RB3LYP) =  -2398.26659508     A.U. after   16 cycles
 SCF Done:  E(RB3LYP) =  -2398.26693728     A.U. after   16 cycles
 SCF Done:  E(RB3LYP) =  -2398.26703965     A.U. after   12 cycles
 SCF Done:  E(RB3LYP) =  -2398.26705206     A.U. after   12 cycles
 SCF Done:  E(RB3LYP) =  -2398.26705330     A.U. after    9 cycles
 SCF Done:  E(RB3LYP) =  -2398.26705342     A.U. after    7 cycles
 Optimization completed.
 SCF Done:  E(RB3LYP) =  -2398.26119302     A.U. after   17 cycles
 SCF Done:  E(RB3LYP) =  -2398.26684519     A.U. after   17 cycles
 SCF Done:  E(RB3LYP) =  -2398.26707364     A.U. after   13 cycles
 SCF Done:  E(RB3LYP) =  -2398.26707664     A.U. after    9 cycles
 SCF Done:  E(RB3LYP) =  -2398.26707718     A.U. after    8 cycles
 SCF Done:  E(RB3LYP) =  -2398.26707727     A.U. after    7 cycles
    -- Stationary point found.
 SCF Done:  E(RB3LYP) =  -2398.26094164     A.U. after   24 cycles
 SCF Done:  E(RB3LYP) =  -2398.26676621     A.U. after   17 cycles
 SCF Done:  E(RB3LYP) =  -2398.26699239     A.U. after   12 cycles
 SCF Done:  E(RB3LYP) =  -2398.26699515     A.U. after   11 cycles
 SCF Done:  E(RB3LYP) =  -2398.26699551     A.U. after    8 cycles
 Optimization completed.
    -- Stationary point found.

                         Standard orientation:
 ---------------------------------------------------------------------
 Center     Atomic      Atomic             Coordinates (Angstroms)
 Number     Number       Type             X           Y           Z
 ---------------------------------------------------------------------
      1          6           0       -6.110310    1.157804   -0.038715
      2          6           0       -4.766937    0.789147    0.079060
      3          6           0       -4.347022   -0.550199    0.132147
      4          6           0       -5.282469   -1.571304    0.059324
      5          6           0       -6.636390   -1.224680   -0.062308
      6          6           0       -7.041456    0.121452   -0.107276
      7          6           0       -2.842048   -0.562858    0.255698
      8          6           0       -2.492836    0.906761    0.279407
      9          7           0       -3.621767    1.618771    0.161168
     10          6           0       -3.670882    3.086625    0.074961
     11          6           0       -2.302301    3.672880   -0.278967
     12          6           0       -1.233291    3.027865    0.612089
     13          6           0       -1.222839    1.527713    0.390938
     14          8           0        0.037991    3.657652    0.517397
     15          6           0        1.049363    3.017479   -0.261600
     16          6           0        1.181057    1.544461    0.081318
     17          6           0       -0.031542    0.840195    0.287117
     18          6           0        2.349798    3.767139    0.022146
     19          6           0        3.548964    3.066999   -0.615470
     20          7           0        3.568939    1.653847   -0.241377
     21          6           0        2.424551    0.954546    0.067100
     22          6           0        2.807922   -0.486278    0.348947
     23          6           0        4.299981   -0.486766    0.104171
     24          6           0        4.692152    0.820204   -0.251209
     25          6           0        6.013844    1.141181   -0.564685
     26          6           0        6.963215    0.114685   -0.499479
     27          6           0        6.573540   -1.173115   -0.127637
     28          6           0        5.238928   -1.500794    0.167254
     29         16           0       -7.904497   -2.556730   -0.168970
     30         16           0        7.809418   -2.466846   -0.068566
     31          8           0       -7.090985   -3.813177   -0.072064
     32          8           0       -8.778968   -2.252871    1.009703
     33          8           0       -8.525913   -2.285048   -1.505817
     34          8           0        9.003445   -2.020278   -0.804630
     35          8           0        8.149171   -2.424782    1.563026
     36          8           0        7.178895   -3.779519   -0.327580
     37          1           0       -6.427261    2.202019   -0.068526
     38          1           0       -5.029242   -2.633284    0.090058
     39          1           0       -8.106893    0.338323   -0.196554
     40          1           0       -2.351610   -1.072149   -0.590410
     41          1           0       -2.488592   -1.058361    1.175678
     42          1           0       -4.032298    3.469961    1.044135
     43          1           0       -4.423203    3.347012   -0.682411
     44          1           0       -2.324876    4.760290   -0.117178
     45          1           0       -2.069664    3.492213   -1.341236
     46          1           0       -1.534672    3.197683    1.663542
     47          1           0        0.793337    3.107191   -1.338133
     48          1           0       -0.032121   -0.253534    0.286444
     49          1           0        2.478440    3.816341    1.115212
     50          1           0        2.284905    4.798478   -0.352751
     51          1           0        4.484505    3.531558   -0.272630
     52          1           0        3.522493    3.148506   -1.717712
     53          1           0        2.269770   -1.181284   -0.317252
     54          1           0        2.552625   -0.771407    1.382661
     55          1           0        6.309742    2.147148   -0.863241
     56          1           0        8.007649    0.305339   -0.747036
     57          1           0        4.970286   -2.526976    0.421561
     58          1           0        8.270707   -3.358851    1.821538
 ---------------------------------------------------------------------

 The electronic state is 1-A.
 Alpha  occ. eigenvalues --  -89.14941 -89.01744 -19.21112 -19.19713 -19.16663
 Alpha  occ. eigenvalues --  -19.16568 -19.02850 -19.02723 -19.02709 -14.45957
 Alpha  occ. eigenvalues --  -14.44596 -10.30981 -10.30757 -10.30000 -10.29937
 Alpha  occ. eigenvalues --  -10.29549 -10.29501 -10.29265 -10.27015 -10.26538
 Alpha  occ. eigenvalues --  -10.26479 -10.25942 -10.25787 -10.25589 -10.25455
 Alpha  occ. eigenvalues --  -10.25421 -10.25368 -10.25358 -10.24933 -10.24879
 Alpha  occ. eigenvalues --  -10.24561 -10.22233 -10.21461 -10.19597 -10.19444
 Alpha  occ. eigenvalues --  -10.18925  -8.18103  -8.04577  -6.14527  -6.14371
 Alpha  occ. eigenvalues --   -6.14231  -6.00908  -6.00881  -6.00871  -1.15774
 Alpha  occ. eigenvalues --   -1.09476  -1.06152  -1.06020  -1.05260  -1.03063
 Alpha  occ. eigenvalues --   -1.01643  -0.92534  -0.89738  -0.89034  -0.88380
 Alpha  occ. eigenvalues --   -0.88118  -0.87733  -0.86831  -0.85218  -0.82505
 Alpha  occ. eigenvalues --   -0.81584  -0.80093  -0.77658  -0.77074  -0.74993
 Alpha  occ. eigenvalues --   -0.74398  -0.73332  -0.71312  -0.68514  -0.68007
 Alpha  occ. eigenvalues --   -0.66459  -0.65258  -0.64681  -0.62537  -0.61638
 Alpha  occ. eigenvalues --   -0.59949  -0.58701  -0.58030  -0.57683  -0.57097
 Alpha  occ. eigenvalues --   -0.55927  -0.55104  -0.54531  -0.54177  -0.53224
 Alpha  occ. eigenvalues --   -0.52552  -0.52469  -0.51347  -0.50857  -0.50138
 Alpha  occ. eigenvalues --   -0.49702  -0.49248  -0.48714  -0.48431  -0.47794
 Alpha  occ. eigenvalues --   -0.47753  -0.46754  -0.46358  -0.45895  -0.45730
 Alpha  occ. eigenvalues --   -0.45186  -0.44793  -0.44609  -0.44263  -0.43948
 Alpha  occ. eigenvalues --   -0.43296  -0.43037  -0.42339  -0.41586  -0.40655
 Alpha  occ. eigenvalues --   -0.40087  -0.39990  -0.39392  -0.38879  -0.38377
 Alpha  occ. eigenvalues --   -0.38092  -0.36792  -0.36388  -0.36186  -0.35887
 Alpha  occ. eigenvalues --   -0.34819  -0.34709  -0.34139  -0.34108  -0.32063
 Alpha  occ. eigenvalues --   -0.31404  -0.31344  -0.30620  -0.27128  -0.26738
 Alpha  occ. eigenvalues --   -0.23997  -0.23713  -0.23476  -0.21069  -0.20428
 Alpha  occ. eigenvalues --   -0.19690  -0.16503
 Alpha virt. eigenvalues --   -0.13662  -0.07434  -0.07178  -0.04609  -0.02077
 Alpha virt. eigenvalues --   -0.00574  -0.00009   0.00258   0.00839   0.00993
 Alpha virt. eigenvalues --    0.02069   0.03011   0.03896   0.03979   0.04887

 Mulliken atomic charges:
              1
     1  C   -0.013254
     2  C    0.223066
     3  C   -0.125342
     4  C    0.026547
     5  C   -0.243877
     6  C    0.128101
     7  C    0.179267
     8  C    0.080940
     9  N   -0.265972
    10  C    0.088498
    11  C    0.047550
    12  C    0.156883
    13  C   -0.117571
    14  O   -0.320026
    15  C    0.129183
    16  C   -0.097727
    17  C    0.009362
    18  C    0.038725
    19  C    0.095752
    20  N   -0.314328
    21  C    0.081711
    22  C    0.186491
    23  C   -0.155828
    24  C    0.268376
    25  C   -0.010350
    26  C    0.108811
    27  C   -0.251991
    28  C    0.050815
    29  S    0.986135
    30  S    0.994606
    31  O   -0.524634
    32  O   -0.519553
    33  O   -0.520031
    34  O   -0.410816
    35  O   -0.325144
    36  O   -0.437835
    37  H   -0.027901
    38  H   -0.023799
    39  H   -0.006518
    40  H    0.081758
    41  H    0.081653
    42  H    0.057950
    43  H    0.061324
    44  H    0.031227
    45  H    0.024804
    46  H    0.026288
    47  H    0.011891
    48  H   -0.026236
    49  H    0.032264
    50  H    0.026560
    51  H    0.048046
    52  H    0.045656
    53  H    0.079217
    54  H    0.079761
    55  H   -0.010808
    56  H    0.005206
    57  H   -0.015235
    58  H    0.190355
 Sum of Mulliken atomic charges =   0.00000

 Dipole moment (field-independent basis, Debye):
    X=             22.8792    Y=             16.9924    Z=              1.8109  Tot=             28.5566
 Quadrupole moment (field-independent basis, Debye-Ang):
   XX=           -438.8169   YY=           -227.8396   ZZ=           -224.8327
   XY=            -76.7035   XZ=              5.1417   YZ=            -15.5297

 Normal termination of Gaussian 09 at Tue Mar 17 19:14:55 2015.
