 Gaussian 09, Revision B.01,
 Gaussian 09:  EM64L-G09RevB.01 12-Aug-2010

 ------------------------------------------------------
 # opt=modredundant B3LYP/cc-pVDZ Geom=PrintInputOrient
 ------------------------------------------------------

 -------------------------------
 CY3 Dihedral Scan at MP2/6-31G*
 -------------------------------
 Symbolic Z-matrix:
 Charge =  0 Multiplicity = 1

 SCF Done:  E(RB3LYP) =  -2398.26711824     A.U. after   22 cycles
 SCF Done:  E(RB3LYP) =  -2398.26712600     A.U. after    8 cycles
 Optimization completed.
    -- Stationary point found.
 SCF Done:  E(RB3LYP) =  -2398.26416315     A.U. after   13 cycles
 SCF Done:  E(RB3LYP) =  -2398.26227890     A.U. after   13 cycles
 SCF Done:  E(RB3LYP) =  -2398.26438542     A.U. after   13 cycles
 SCF Done:  E(RB3LYP) =  -2398.26439933     A.U. after   10 cycles
 SCF Done:  E(RB3LYP) =  -2398.26440150     A.U. after    8 cycles
 SCF Done:  E(RB3LYP) =  -2398.26440237     A.U. after    9 cycles
 SCF Done:  E(RB3LYP) =  -2398.26440258     A.U. after    8 cycles
 SCF Done:  E(RB3LYP) =  -2398.26440274     A.U. after    8 cycles
 SCF Done:  E(RB3LYP) =  -2398.26440303     A.U. after    8 cycles
 SCF Done:  E(RB3LYP) =  -2398.26440328     A.U. after    8 cycles
 SCF Done:  E(RB3LYP) =  -2398.26440350     A.U. after    8 cycles
 SCF Done:  E(RB3LYP) =  -2398.26440362     A.U. after    8 cycles
 SCF Done:  E(RB3LYP) =  -2398.26440364     A.U. after    6 cycles
 Optimization completed.
    -- Stationary point found.
 SCF Done:  E(RB3LYP) =  -2398.25539806     A.U. after   13 cycles
 SCF Done:  E(RB3LYP) =  -2398.25521019     A.U. after   12 cycles
 SCF Done:  E(RB3LYP) =  -2398.25591441     A.U. after   12 cycles
 SCF Done:  E(RB3LYP) =  -2398.25592044     A.U. after   10 cycles
 SCF Done:  E(RB3LYP) =  -2398.25592072     A.U. after    7 cycles
 Optimization completed.
    -- Stationary point found.

                         Standard orientation:
 ---------------------------------------------------------------------
 Center     Atomic      Atomic             Coordinates (Angstroms)
 Number     Number       Type             X           Y           Z
 ---------------------------------------------------------------------
      1          6           0       -6.097872    1.157982   -0.150286
      2          6           0       -4.758507    0.795587    0.005934
      3          6           0       -4.336316   -0.542914    0.099399
      4          6           0       -5.266966   -1.566114    0.034444
      5          6           0       -6.622852   -1.224167   -0.102764
      6          6           0       -7.027465    0.116804   -0.204972
      7          6           0       -2.832449   -0.549078    0.239523
      8          6           0       -2.487724    0.921927    0.236413
      9          7           0       -3.615666    1.628555    0.082854
     10          6           0       -3.666019    3.093968   -0.037099
     11          6           0       -2.292022    3.675735   -0.377184
     12          6           0       -1.239534    3.052714    0.548408
     13          6           0       -1.221560    1.548349    0.359565
     14          8           0        0.031900    3.683874    0.465635
     15          6           0        1.063023    3.028831   -0.274237
     16          6           0        1.188618    1.563692    0.102832
     17          6           0       -0.027076    0.861504    0.296743
     18          6           0        2.354847    3.786344    0.027441
     19          6           0        3.571499    3.076340   -0.564405
     20          7           0        3.583779    1.669738   -0.165263
     21          6           0        2.432978    0.975992    0.131300
     22          6           0        2.811327   -0.455426    0.462646
     23          6           0        4.304358   -0.468460    0.225234
     24          6           0        4.709491    0.840312   -0.123659
     25          6           0        6.050696    1.174203   -0.341205
     26          6           0        6.985944    0.150335   -0.137298
     27          6           0        6.541468   -1.174722   -0.143474
     28          6           0        5.228833   -1.500751    0.246469
     29         16           0       -7.883554   -2.566990   -0.106478
     30         16           0        7.764391   -2.484595   -0.185922
     31          8           0       -8.185943   -2.679080    1.358971
     32          8           0       -8.986323   -2.002060   -0.948036
     33          8           0       -7.135357   -3.727453   -0.691662
     34          8           0        9.028491   -1.932179   -0.700504
     35          8           0        7.933186   -2.765243    1.451633
     36          8           0        7.157564   -3.706625   -0.755726
     37          1           0       -6.414550    2.199983   -0.226675
     38          1           0       -5.000734   -2.624424    0.071800
     39          1           0       -8.091730    0.315355   -0.343089
     40          1           0       -2.331433   -1.073366   -0.591264
     41          1           0       -2.487117   -1.024617    1.172953
     42          1           0       -4.047344    3.497701    0.915991
     43          1           0       -4.403898    3.335583   -0.814653
     44          1           0       -2.320015    4.766337   -0.239538
     45          1           0       -2.038138    3.472716   -1.430523
     46          1           0       -1.562425    3.243888    1.589790
     47          1           0        0.834190    3.095742   -1.358480
     48          1           0       -0.025701   -0.231958    0.319766
     49          1           0        2.454619    3.857799    1.122307
     50          1           0        2.298335    4.809843   -0.369659
     51          1           0        4.496510    3.549303   -0.205081
     52          1           0        3.575380    3.137459   -1.668114
     53          1           0        2.272741   -1.173911   -0.177025
     54          1           0        2.552354   -0.699247    1.506527
     55          1           0        6.373617    2.199648   -0.521589
     56          1           0        8.052874    0.348851   -0.252190
     57          1           0        4.938945   -2.537984    0.419757
     58          1           0        8.054867   -3.731212    1.533164
 ---------------------------------------------------------------------

 The electronic state is 1-A.
 Alpha  occ. eigenvalues --  -89.14772 -89.01764 -19.21072 -19.19724 -19.16525
 Alpha  occ. eigenvalues --  -19.16501 -19.02821 -19.02805 -19.02732 -14.45964
 Alpha  occ. eigenvalues --  -14.44641 -10.30993 -10.30769 -10.30009 -10.29954
 Alpha  occ. eigenvalues --  -10.29578 -10.29569 -10.29269 -10.27017 -10.26552
 Alpha  occ. eigenvalues --  -10.26494 -10.25991 -10.25939 -10.25691 -10.25474
 Alpha  occ. eigenvalues --  -10.25455 -10.25430 -10.25370 -10.24948 -10.24886
 Alpha  occ. eigenvalues --  -10.24584 -10.22213 -10.21488 -10.19636 -10.19380
 Alpha  occ. eigenvalues --  -10.18935  -8.17951  -8.04599  -6.14378  -6.14215
 Alpha  occ. eigenvalues --   -6.14076  -6.00929  -6.00902  -6.00893  -1.15632
 Alpha  occ. eigenvalues --   -1.09483  -1.06159  -1.06028  -1.05171  -1.02953
 Alpha  occ. eigenvalues --   -1.01664  -0.92616  -0.89747  -0.89047  -0.88406
 Alpha  occ. eigenvalues --   -0.88133  -0.87760  -0.86845  -0.85216  -0.82529
 Alpha  occ. eigenvalues --   -0.81529  -0.80108  -0.77650  -0.77088  -0.75011
 Alpha  occ. eigenvalues --   -0.74364  -0.73299  -0.71249  -0.68494  -0.67999
 Alpha  occ. eigenvalues --   -0.66453  -0.65251  -0.64542  -0.62519  -0.61652
 Alpha  occ. eigenvalues --   -0.59928  -0.58693  -0.58030  -0.57735  -0.57134
 Alpha  occ. eigenvalues --   -0.55952  -0.55096  -0.54545  -0.54062  -0.53208
 Alpha  occ. eigenvalues --   -0.52473  -0.52464  -0.51281  -0.50934  -0.50220
 Alpha  occ. eigenvalues --   -0.49717  -0.49252  -0.48612  -0.48389  -0.47804
 Alpha  occ. eigenvalues --   -0.47772  -0.46712  -0.46367  -0.45922  -0.45705
 Alpha  occ. eigenvalues --   -0.45195  -0.44796  -0.44597  -0.44234  -0.43969
 Alpha  occ. eigenvalues --   -0.43367  -0.43067  -0.42309  -0.41538  -0.40753
 Alpha  occ. eigenvalues --   -0.40108  -0.40016  -0.39401  -0.38886  -0.38356
 Alpha  occ. eigenvalues --   -0.38046  -0.36765  -0.36356  -0.36133  -0.35900
 Alpha  occ. eigenvalues --   -0.34798  -0.34668  -0.34015  -0.33878  -0.32023
 Alpha  occ. eigenvalues --   -0.31382  -0.31190  -0.30600  -0.27122  -0.26746
 Alpha  occ. eigenvalues --   -0.23965  -0.23694  -0.23535  -0.20896  -0.20659
 Alpha  occ. eigenvalues --   -0.19694  -0.16529
 Alpha virt. eigenvalues --   -0.13695  -0.07880  -0.07383  -0.04695  -0.02117
 Alpha virt. eigenvalues --   -0.00574  -0.00084   0.00195   0.00805   0.00989
 Alpha virt. eigenvalues --    0.02032   0.03002   0.03925   0.04022   0.04812

 Mulliken atomic charges:
              1
     1  C   -0.009140
     2  C    0.223466
     3  C   -0.131270
     4  C    0.044097
     5  C   -0.243040
     6  C    0.109756
     7  C    0.178882
     8  C    0.081072
     9  N   -0.265696
    10  C    0.088515
    11  C    0.047477
    12  C    0.157180
    13  C   -0.118110
    14  O   -0.320243
    15  C    0.130317
    16  C   -0.096823
    17  C    0.009606
    18  C    0.036847
    19  C    0.097543
    20  N   -0.310984
    21  C    0.083235
    22  C    0.183452
    23  C   -0.167670
    24  C    0.257683
    25  C   -0.017916
    26  C    0.107728
    27  C   -0.251838
    28  C    0.068195
    29  S    0.986470
    30  S    0.985394
    31  O   -0.517208
    32  O   -0.520171
    33  O   -0.524989
    34  O   -0.413341
    35  O   -0.328722
    36  O   -0.439261
    37  H   -0.027912
    38  H   -0.024875
    39  H   -0.006148
    40  H    0.081645
    41  H    0.081322
    42  H    0.058210
    43  H    0.061152
    44  H    0.031279
    45  H    0.024682
    46  H    0.026541
    47  H    0.012089
    48  H   -0.026419
    49  H    0.032042
    50  H    0.026653
    51  H    0.046793
    52  H    0.046620
    53  H    0.077610
    54  H    0.080424
    55  H   -0.005721
    56  H    0.019944
    57  H   -0.007214
    58  H    0.190789
 Sum of Mulliken atomic charges =   0.00000

 Dipole moment (field-independent basis, Debye):
    X=             22.7436    Y=             16.8888    Z=              1.5564  Tot=             28.3712
 Quadrupole moment (field-independent basis, Debye-Ang):
   XX=           -439.2335   YY=           -225.0545   ZZ=           -226.6300
   XY=            -77.7886   XZ=             10.4641   YZ=            -15.0891

 Normal termination of Gaussian 09 at Sun Mar 22 00:06:40 2015.
