 Gaussian 09, Revision B.01,
 Gaussian 09:  EM64L-G09RevB.01 12-Aug-2010

 ------------------------------------------------------
 # opt=modredundant B3LYP/cc-pVDZ Geom=PrintInputOrient
 ------------------------------------------------------

 -------------------------------
 CY3 Dihedral Scan at MP2/6-31G*
 -------------------------------
 Symbolic Z-matrix:
 Charge =  0 Multiplicity = 1

 SCF Done:  E(RB3LYP) =  -2398.26711824     A.U. after   22 cycles
 SCF Done:  E(RB3LYP) =  -2398.26712605     A.U. after    8 cycles
 Optimization completed.
    -- Stationary point found.
 SCF Done:  E(RB3LYP) =  -2398.26040618     A.U. after   14 cycles
 SCF Done:  E(RB3LYP) =  -2398.26047897     A.U. after   11 cycles
 SCF Done:  E(RB3LYP) =  -2398.26313299     A.U. after   12 cycles
 SCF Done:  E(RB3LYP) =  -2398.26387775     A.U. after   12 cycles
 SCF Done:  E(RB3LYP) =  -2398.26391335     A.U. after   11 cycles
 SCF Done:  E(RB3LYP) =  -2398.26391592     A.U. after    9 cycles
 SCF Done:  E(RB3LYP) =  -2398.26391627     A.U. after    8 cycles
 SCF Done:  E(RB3LYP) =  -2398.26391639     A.U. after    8 cycles
 Optimization completed.
    -- Stationary point found.
 SCF Done:  E(RB3LYP) =  -2398.25370449     A.U. after   19 cycles
 SCF Done:  E(RB3LYP) =  -2398.25373318     A.U. after   12 cycles
 SCF Done:  E(RB3LYP) =  -2398.25359464     A.U. after   19 cycles
 SCF Done:  E(RB3LYP) =  -2398.25375161     A.U. after   19 cycles
 SCF Done:  E(RB3LYP) =  -2398.25375132     A.U. after   11 cycles
 SCF Done:  E(RB3LYP) =  -2398.25375578     A.U. after   11 cycles
 SCF Done:  E(RB3LYP) =  -2398.25375621     A.U. after    8 cycles
 SCF Done:  E(RB3LYP) =  -2398.25375647     A.U. after    8 cycles
 SCF Done:  E(RB3LYP) =  -2398.25375649     A.U. after    8 cycles
 SCF Done:  E(RB3LYP) =  -2398.25375648     A.U. after    7 cycles
 Optimization completed.
    -- Stationary point found.

                         Standard orientation:
 ---------------------------------------------------------------------
 Center     Atomic      Atomic             Coordinates (Angstroms)
 Number     Number       Type             X           Y           Z
 ---------------------------------------------------------------------
      1          6           0        6.143926    1.107622   -0.291020
      2          6           0        4.803241    0.806247   -0.517933
      3          6           0        4.292960   -0.508757   -0.476189
      4          6           0        5.145162   -1.569872   -0.239873
      5          6           0        6.498760   -1.285645    0.032484
      6          6           0        6.994323    0.023943   -0.036628
      7          6           0        2.903657   -0.417383   -1.067272
      8          6           0        2.522386    0.998954   -0.704759
      9          7           0        3.673417    1.682007   -0.553964
     10          6           0        3.742501    3.119461   -0.252722
     11          6           0        2.413459    3.632500    0.309160
     12          6           0        1.264071    3.141103   -0.579847
     13          6           0        1.256442    1.624941   -0.621427
     14          8           0        0.012440    3.740066   -0.267402
     15          6           0       -0.932457    2.970711    0.476084
     16          6           0       -1.110148    1.577625   -0.101431
     17          6           0        0.069548    0.923922   -0.532066
     18          6           0       -2.245039    3.751429    0.444185
     19          6           0       -3.388452    2.946838    1.060615
     20          7           0       -3.455912    1.616373    0.457553
     21          6           0       -2.353436    0.985885   -0.069540
     22          6           0       -2.775530   -0.389053   -0.552559
     23          6           0       -4.239027   -0.438324   -0.176267
     24          6           0       -4.583054    0.787479    0.429365
     25          6           0       -5.866728    1.044944    0.912682
     26          6           0       -6.828889    0.039458    0.763189
     27          6           0       -6.488764   -1.165102    0.144981
     28          6           0       -5.190595   -1.431966   -0.322692
     29         16           0        7.613072   -2.673738    0.501589
     30         16           0       -7.739599   -2.436155   -0.014921
     31          8           0        7.086131   -3.812788   -0.319966
     32          8           0        8.974275   -2.169708    0.132263
     33          8           0        7.338625   -2.775537    1.973077
     34          8           0       -8.847615   -2.131498    0.904873
     35          8           0       -8.242849   -2.111370   -1.570818
     36          8           0       -7.101650   -3.769941   -0.055090
     37          1           0        6.525218    2.130680   -0.312445
     38          1           0        4.825342   -2.613748   -0.254175
     39          1           0        8.063989    0.167814    0.126096
     40          1           0        2.187135   -1.174300   -0.720640
     41          1           0        2.961079   -0.481561   -2.169188
     42          1           0        4.012183    3.652616   -1.180194
     43          1           0        4.560467    3.269582    0.465045
     44          1           0        2.431459    4.731870    0.328447
     45          1           0        2.272806    3.276269    1.342813
     46          1           0        1.472498    3.488552   -1.609926
     47          1           0       -0.581311    2.872734    1.524628
     48          1           0        0.058879   -0.153866   -0.714702
     49          1           0       -2.472336    3.986162   -0.607997
     50          1           0       -2.135066    4.703803    0.982052
     51          1           0       -4.346839    3.456739    0.887018
     52          1           0       -3.261901    2.840923    2.153687
     53          1           0       -2.186202   -1.182543   -0.063045
     54          1           0       -2.616871   -0.495991   -1.638063
     55          1           0       -6.122880    1.984459    1.402913
     56          1           0       -7.844052    0.180149    1.134809
     57          1           0       -4.957002   -2.399309   -0.769428
     58          1           0       -8.389449   -2.986957   -1.978119
 ---------------------------------------------------------------------

 The electronic state is 1-A.
 Alpha  occ. eigenvalues --  -89.14949 -89.01786 -19.21119 -19.19672 -19.16680
 Alpha  occ. eigenvalues --  -19.16571 -19.02864 -19.02852 -19.02735 -14.45465
 Alpha  occ. eigenvalues --  -14.44684 -10.30844 -10.30842 -10.29940 -10.29905
 Alpha  occ. eigenvalues --  -10.29559 -10.29522 -10.28949 -10.27039 -10.26564
 Alpha  occ. eigenvalues --  -10.26560 -10.25971 -10.25805 -10.25601 -10.25459
 Alpha  occ. eigenvalues --  -10.25386 -10.25301 -10.25228 -10.24929 -10.24696
 Alpha  occ. eigenvalues --  -10.24583 -10.21944 -10.21558 -10.19711 -10.19298
 Alpha  occ. eigenvalues --  -10.18976  -8.18111  -8.04622  -6.14535  -6.14379
 Alpha  occ. eigenvalues --   -6.14239  -6.00952  -6.00925  -6.00916  -1.15785
 Alpha  occ. eigenvalues --   -1.09440  -1.06101  -1.05594  -1.05266  -1.03080
 Alpha  occ. eigenvalues --   -1.01691  -0.92558  -0.89658  -0.88961  -0.88445
 Alpha  occ. eigenvalues --   -0.88148  -0.87742  -0.86716  -0.85067  -0.82472
 Alpha  occ. eigenvalues --   -0.81599  -0.79949  -0.77570  -0.76951  -0.74961
 Alpha  occ. eigenvalues --   -0.74285  -0.73132  -0.71288  -0.68372  -0.68000
 Alpha  occ. eigenvalues --   -0.66410  -0.65171  -0.64669  -0.62345  -0.61484
 Alpha  occ. eigenvalues --   -0.59836  -0.58690  -0.57966  -0.57627  -0.57087
 Alpha  occ. eigenvalues --   -0.55995  -0.54784  -0.54469  -0.54144  -0.53294
 Alpha  occ. eigenvalues --   -0.52723  -0.52051  -0.51289  -0.50947  -0.50103
 Alpha  occ. eigenvalues --   -0.49720  -0.48961  -0.48660  -0.48295  -0.47779
 Alpha  occ. eigenvalues --   -0.47600  -0.46705  -0.46406  -0.45873  -0.45753
 Alpha  occ. eigenvalues --   -0.45082  -0.44929  -0.44586  -0.44283  -0.43878
 Alpha  occ. eigenvalues --   -0.43128  -0.42875  -0.42223  -0.41565  -0.40621
 Alpha  occ. eigenvalues --   -0.39961  -0.39805  -0.39252  -0.38795  -0.38468
 Alpha  occ. eigenvalues --   -0.37601  -0.36860  -0.36308  -0.36172  -0.35952
 Alpha  occ. eigenvalues --   -0.34784  -0.34445  -0.34139  -0.34035  -0.32083
 Alpha  occ. eigenvalues --   -0.31395  -0.31341  -0.30585  -0.27192  -0.26528
 Alpha  occ. eigenvalues --   -0.23992  -0.23723  -0.23557  -0.20936  -0.20661
 Alpha  occ. eigenvalues --   -0.19705  -0.16556
 Alpha virt. eigenvalues --   -0.13693  -0.07440  -0.07194  -0.04648  -0.02142
 Alpha virt. eigenvalues --   -0.01332  -0.00039   0.00236   0.00848   0.01134
 Alpha virt. eigenvalues --    0.02243   0.03013   0.03803   0.04067   0.04906

 Mulliken atomic charges:
              1
     1  C   -0.007000
     2  C    0.178049
     3  C   -0.089527
     4  C    0.060579
     5  C   -0.243693
     6  C    0.101933
     7  C    0.114177
     8  C    0.130764
     9  N   -0.256934
    10  C    0.095493
    11  C    0.041296
    12  C    0.156835
    13  C   -0.118609
    14  O   -0.320185
    15  C    0.130201
    16  C   -0.102897
    17  C    0.023342
    18  C    0.038593
    19  C    0.095359
    20  N   -0.313743
    21  C    0.083877
    22  C    0.185607
    23  C   -0.154672
    24  C    0.267948
    25  C   -0.009774
    26  C    0.109290
    27  C   -0.251635
    28  C    0.050322
    29  S    0.987294
    30  S    0.994937
    31  O   -0.524334
    32  O   -0.518987
    33  O   -0.518405
    34  O   -0.410249
    35  O   -0.325294
    36  O   -0.437467
    37  H   -0.022519
    38  H   -0.017628
    39  H   -0.004501
    40  H    0.046919
    41  H    0.088658
    42  H    0.052712
    43  H    0.059201
    44  H    0.030286
    45  H    0.027906
    46  H    0.024492
    47  H    0.014111
    48  H   -0.028126
    49  H    0.031599
    50  H    0.027255
    51  H    0.048215
    52  H    0.047230
    53  H    0.081648
    54  H    0.079325
    55  H   -0.010298
    56  H    0.005525
    57  H   -0.014833
    58  H    0.190331
 Sum of Mulliken atomic charges =   0.00000

 Dipole moment (field-independent basis, Debye):
    X=            -21.7401    Y=             17.7493    Z=             -4.1677  Tot=             28.3732
 Quadrupole moment (field-independent basis, Debye-Ang):
   XX=           -416.0513   YY=           -235.4454   ZZ=           -220.8682
   XY=             77.1708   XZ=            -11.5816   YZ=             20.5943

 Normal termination of Gaussian 09 at Sat Mar 21 11:33:47 2015.
