 Gaussian 09, Revision B.01,
 Gaussian 09:  EM64L-G09RevB.01 12-Aug-2010

 ------------------------------------------------------
 # opt=modredundant B3LYP/cc-pVDZ Geom=PrintInputOrient
 ------------------------------------------------------

 -------------------------------
 CY3 Dihedral Scan at MP2/6-31G*
 -------------------------------
 Symbolic Z-matrix:
 Charge =  0 Multiplicity = 1

 SCF Done:  E(RB3LYP) =  -2398.26711824     A.U. after   22 cycles
 SCF Done:  E(RB3LYP) =  -2398.26712607     A.U. after    8 cycles
 Optimization completed.
    -- Stationary point found.
 SCF Done:  E(RB3LYP) =  -2398.25887835     A.U. after   14 cycles
 SCF Done:  E(RB3LYP) =  -2398.26449953     A.U. after   12 cycles
 SCF Done:  E(RB3LYP) =  -2398.26539080     A.U. after   12 cycles
 SCF Done:  E(RB3LYP) =  -2398.26542709     A.U. after   11 cycles
 SCF Done:  E(RB3LYP) =  -2398.26543272     A.U. after   11 cycles
 SCF Done:  E(RB3LYP) =  -2398.26543540     A.U. after    9 cycles
 SCF Done:  E(RB3LYP) =  -2398.26543706     A.U. after    9 cycles
 SCF Done:  E(RB3LYP) =  -2398.26543806     A.U. after    8 cycles
 Optimization completed.
    -- Stationary point found.
 SCF Done:  E(RB3LYP) =  -2398.22616668     A.U. after   14 cycles
 SCF Done:  E(RB3LYP) =  -2398.26201820     A.U. after   15 cycles
 SCF Done:  E(RB3LYP) =  -2398.26189370     A.U. after   13 cycles
 SCF Done:  E(RB3LYP) =  -2398.26195929     A.U. after   14 cycles
 SCF Done:  E(RB3LYP) =  -2398.26201556     A.U. after   13 cycles
 SCF Done:  E(RB3LYP) =  -2398.26202501     A.U. after   11 cycles
 SCF Done:  E(RB3LYP) =  -2398.26202526     A.U. after   11 cycles
 SCF Done:  E(RB3LYP) =  -2398.26202680     A.U. after   10 cycles
 SCF Done:  E(RB3LYP) =  -2398.26202699     A.U. after    8 cycles
 SCF Done:  E(RB3LYP) =  -2398.26202709     A.U. after    7 cycles
 Optimization completed.
    -- Stationary point found.

                         Standard orientation:
 ---------------------------------------------------------------------
 Center     Atomic      Atomic             Coordinates (Angstroms)
 Number     Number       Type             X           Y           Z
 ---------------------------------------------------------------------
      1          6           0       -6.073861    1.158850   -0.332671
      2          6           0       -4.756156    0.775148   -0.073910
      3          6           0       -4.381141   -0.560531    0.153873
      4          6           0       -5.341273   -1.559383    0.136892
      5          6           0       -6.676816   -1.193474   -0.096459
      6          6           0       -7.032439    0.143539   -0.340731
      7          6           0       -2.883829   -0.598090    0.346689
      8          6           0       -2.492902    0.854180    0.213504
      9          7           0       -3.590664    1.581675   -0.022719
     10          6           0       -3.594192    2.992974   -0.443964
     11          6           0       -2.229847    3.700855   -0.300643
     12          6           0       -1.258641    2.953135    0.625366
     13          6           0       -1.221971    1.470200    0.332994
     14          8           0        0.016973    3.580509    0.678297
     15          6           0        1.060007    3.009218   -0.112469
     16          6           0        1.190457    1.515648    0.127038
     17          6           0       -0.024112    0.794231    0.251412
     18          6           0        2.343914    3.742405    0.270595
     19          6           0        3.569493    3.096840   -0.374487
     20          7           0        3.586097    1.659437   -0.108757
     21          6           0        2.437162    0.933602    0.110279
     22          6           0        2.821842   -0.522973    0.293047
     23          6           0        4.319677   -0.499166    0.087871
     24          6           0        4.713740    0.833075   -0.153420
     25          6           0        6.041157    1.182365   -0.406531
     26          6           0        6.993863    0.156893   -0.399291
     27          6           0        6.601637   -1.157692   -0.141469
     28          6           0        5.261941   -1.512064    0.093642
     29         16           0       -7.981454   -2.493970   -0.055056
     30         16           0        7.842338   -2.447976   -0.159008
     31          8           0       -8.465910   -2.373980    1.359414
     32          8           0       -8.948673   -2.036351   -1.103508
     33          8           0       -7.217826   -3.746954   -0.365640
     34          8           0        9.051804   -1.937573   -0.825136
     35          8           0        8.141236   -2.541547    1.478310
     36          8           0        7.225546   -3.736486   -0.542569
     37          1           0       -6.351062    2.196477   -0.527635
     38          1           0       -5.114232   -2.618014    0.279093
     39          1           0       -8.080365    0.360294   -0.554933
     40          1           0       -2.373984   -1.213727   -0.413828
     41          1           0       -2.579814   -0.990704    1.331375
     42          1           0       -4.362779    3.495169    0.163247
     43          1           0       -3.949311    3.015128   -1.485553
     44          1           0       -2.380061    4.723833    0.070983
     45          1           0       -1.755750    3.782144   -1.292224
     46          1           0       -1.641091    3.048423    1.659275
     47          1           0        0.839351    3.176674   -1.187860
     48          1           0       -0.017294   -0.298383    0.203480
     49          1           0        2.434210    3.712203    1.368181
     50          1           0        2.284353    4.798139   -0.029863
     51          1           0        4.489158    3.537636    0.036175
     52          1           0        3.581721    3.262286   -1.467607
     53          1           0        2.305177   -1.168107   -0.436934
     54          1           0        2.542374   -0.885534    1.295865
     55          1           0        6.339033    2.209826   -0.616895
     56          1           0        8.043201    0.369685   -0.604431
     57          1           0        4.992393   -2.556154    0.258328
     58          1           0        8.261122   -3.493598    1.660840
 ---------------------------------------------------------------------

 The electronic state is 1-A.
 Alpha  occ. eigenvalues --  -89.14947 -89.01737 -19.21118 -19.19723 -19.16667
 Alpha  occ. eigenvalues --  -19.16573 -19.02809 -19.02763 -19.02683 -14.46074
 Alpha  occ. eigenvalues --  -14.44576 -10.31052 -10.30760 -10.30058 -10.29946
 Alpha  occ. eigenvalues --  -10.29558 -10.29499 -10.29343 -10.27019 -10.26539
 Alpha  occ. eigenvalues --  -10.26538 -10.25944 -10.25793 -10.25589 -10.25437
 Alpha  occ. eigenvalues --  -10.25427 -10.25400 -10.25356 -10.24989 -10.24959
 Alpha  occ. eigenvalues --  -10.24550 -10.22252 -10.21481 -10.19580 -10.19431
 Alpha  occ. eigenvalues --  -10.18919  -8.18109  -8.04571  -6.14533  -6.14377
 Alpha  occ. eigenvalues --   -6.14237  -6.00902  -6.00874  -6.00865  -1.15781
 Alpha  occ. eigenvalues --   -1.09539  -1.06205  -1.06015  -1.05267  -1.03067
 Alpha  occ. eigenvalues --   -1.01633  -0.92534  -0.89668  -0.88904  -0.88368
 Alpha  occ. eigenvalues --   -0.88112  -0.87738  -0.86891  -0.85130  -0.82504
 Alpha  occ. eigenvalues --   -0.81583  -0.80099  -0.77732  -0.77068  -0.75013
 Alpha  occ. eigenvalues --   -0.74496  -0.73354  -0.71362  -0.68573  -0.68038
 Alpha  occ. eigenvalues --   -0.66512  -0.65269  -0.64673  -0.62488  -0.61685
 Alpha  occ. eigenvalues --   -0.59814  -0.58711  -0.57815  -0.57486  -0.57088
 Alpha  occ. eigenvalues --   -0.55873  -0.55267  -0.54662  -0.54199  -0.53242
 Alpha  occ. eigenvalues --   -0.52657  -0.52489  -0.51300  -0.50882  -0.50119
 Alpha  occ. eigenvalues --   -0.49759  -0.49271  -0.48722  -0.48337  -0.47887
 Alpha  occ. eigenvalues --   -0.47763  -0.46819  -0.46269  -0.45980  -0.45779
 Alpha  occ. eigenvalues --   -0.45090  -0.44812  -0.44614  -0.44288  -0.43870
 Alpha  occ. eigenvalues --   -0.43468  -0.43066  -0.42379  -0.41561  -0.40866
 Alpha  occ. eigenvalues --   -0.40317  -0.39772  -0.38968  -0.38825  -0.38336
 Alpha  occ. eigenvalues --   -0.38042  -0.36712  -0.36348  -0.36182  -0.35873
 Alpha  occ. eigenvalues --   -0.34850  -0.34765  -0.34141  -0.34108  -0.32065
 Alpha  occ. eigenvalues --   -0.31422  -0.31355  -0.30640  -0.27093  -0.26759
 Alpha  occ. eigenvalues --   -0.23995  -0.23668  -0.23528  -0.20905  -0.20599
 Alpha  occ. eigenvalues --   -0.19692  -0.16499
 Alpha virt. eigenvalues --   -0.13629  -0.07454  -0.07180  -0.04642  -0.02138
 Alpha virt. eigenvalues --   -0.00654  -0.00057   0.00238   0.00634   0.00853
 Alpha virt. eigenvalues --    0.01527   0.03035   0.03767   0.03958   0.04741

 Mulliken atomic charges:
              1
     1  C   -0.011694
     2  C    0.225650
     3  C   -0.131326
     4  C    0.036887
     5  C   -0.242881
     6  C    0.112873
     7  C    0.179850
     8  C    0.078845
     9  N   -0.265534
    10  C    0.089942
    11  C    0.046618
    12  C    0.153915
    13  C   -0.121452
    14  O   -0.319199
    15  C    0.124754
    16  C   -0.092335
    17  C    0.015290
    18  C    0.040128
    19  C    0.095460
    20  N   -0.314848
    21  C    0.079109
    22  C    0.186350
    23  C   -0.155589
    24  C    0.269032
    25  C   -0.010751
    26  C    0.108695
    27  C   -0.251968
    28  C    0.050581
    29  S    0.986567
    30  S    0.994525
    31  O   -0.517164
    32  O   -0.520874
    33  O   -0.525179
    34  O   -0.410932
    35  O   -0.324994
    36  O   -0.438016
    37  H   -0.029759
    38  H   -0.024264
    39  H   -0.006304
    40  H    0.082086
    41  H    0.081869
    42  H    0.062159
    43  H    0.063135
    44  H    0.034641
    45  H    0.022149
    46  H    0.031116
    47  H    0.010906
    48  H   -0.028906
    49  H    0.033234
    50  H    0.026416
    51  H    0.048177
    52  H    0.045074
    53  H    0.078751
    54  H    0.079956
    55  H   -0.010982
    56  H    0.005219
    57  H   -0.015384
    58  H    0.190376
 Sum of Mulliken atomic charges =   0.00000

 Dipole moment (field-independent basis, Debye):
    X=             23.2224    Y=             16.5073    Z=              0.8401  Tot=             28.5039
 Quadrupole moment (field-independent basis, Debye-Ang):
   XX=           -445.7675   YY=           -224.9246   ZZ=           -225.8461
   XY=            -75.3645   XZ=             14.0408   YZ=            -15.6518

 Normal termination of Gaussian 09 at Wed Mar 18 17:02:53 2015.
