 Gaussian 09, Revision B.01,
 Gaussian 09:  EM64L-G09RevB.01 12-Aug-2010

 ------------------------------------------------------
 # opt=modredundant B3LYP/cc-pVDZ Geom=PrintInputOrient
 ------------------------------------------------------

 -------------------------------
 CY3 Dihedral Scan at MP2/6-31G*
 -------------------------------
 Symbolic Z-matrix:
 Charge =  0 Multiplicity = 1

 SCF Done:  E(RB3LYP) =  -2398.26711824     A.U. after   22 cycles
 SCF Done:  E(RB3LYP) =  -2398.26712595     A.U. after    8 cycles
 Optimization completed.
    -- Stationary point found.
 SCF Done:  E(RB3LYP) =  -2398.26409451     A.U. after   13 cycles
 SCF Done:  E(RB3LYP) =  -2398.26161261     A.U. after   14 cycles
 SCF Done:  E(RB3LYP) =  -2398.26423046     A.U. after   13 cycles
 SCF Done:  E(RB3LYP) =  -2398.26424262     A.U. after   10 cycles
 SCF Done:  E(RB3LYP) =  -2398.26424552     A.U. after    9 cycles
 SCF Done:  E(RB3LYP) =  -2398.26424646     A.U. after    8 cycles
 SCF Done:  E(RB3LYP) =  -2398.26424698     A.U. after    8 cycles
 SCF Done:  E(RB3LYP) =  -2398.26424768     A.U. after   11 cycles
 SCF Done:  E(RB3LYP) =  -2398.26424888     A.U. after   11 cycles
 SCF Done:  E(RB3LYP) =  -2398.26424909     A.U. after    8 cycles
 SCF Done:  E(RB3LYP) =  -2398.26424935     A.U. after   10 cycles
 SCF Done:  E(RB3LYP) =  -2398.26424949     A.U. after   10 cycles
 Optimization completed on the basis of negligible forces.
    -- Stationary point found.
 SCF Done:  E(RB3LYP) =  -2398.25488027     A.U. after   14 cycles
 SCF Done:  E(RB3LYP) =  -2398.25467120     A.U. after   12 cycles
 SCF Done:  E(RB3LYP) =  -2398.25529559     A.U. after   12 cycles
 SCF Done:  E(RB3LYP) =  -2398.25529372     A.U. after   12 cycles
 SCF Done:  E(RB3LYP) =  -2398.25529971     A.U. after   12 cycles
 SCF Done:  E(RB3LYP) =  -2398.25530059     A.U. after    8 cycles
 Optimization completed.
    -- Stationary point found.

                         Standard orientation:
 ---------------------------------------------------------------------
 Center     Atomic      Atomic             Coordinates (Angstroms)
 Number     Number       Type             X           Y           Z
 ---------------------------------------------------------------------
      1          6           0       -6.114831    1.136933   -0.014476
      2          6           0       -4.759712    0.793305    0.021569
      3          6           0       -4.344071   -0.550847    0.111891
      4          6           0       -5.288328   -1.567193    0.125828
      5          6           0       -6.638653   -1.226334   -0.087882
      6          6           0       -6.979689    0.103396   -0.391091
      7          6           0       -2.839451   -0.562414    0.242313
      8          6           0       -2.492190    0.908029    0.278846
      9          7           0       -3.620897    1.621191    0.157735
     10          6           0       -3.669270    3.090230    0.089020
     11          6           0       -2.301383    3.679411   -0.262472
     12          6           0       -1.232044    3.027745    0.623245
     13          6           0       -1.222330    1.528739    0.393462
     14          8           0        0.039400    3.657802    0.531615
     15          6           0        1.051972    3.020237   -0.247784
     16          6           0        1.182255    1.545662    0.088972
     17          6           0       -0.031075    0.841084    0.289266
     18          6           0        2.352311    3.767853    0.041680
     19          6           0        3.551972    3.070193   -0.597720
     20          7           0        3.570564    1.655167   -0.230753
     21          6           0        2.425406    0.955065    0.073220
     22          6           0        2.807597   -0.487401    0.348175
     23          6           0        4.299719   -0.487854    0.103764
     24          6           0        4.693075    0.820678   -0.244531
     25          6           0        6.015114    1.142242   -0.555960
     26          6           0        6.963581    0.114580   -0.496228
     27          6           0        6.572715   -1.174910   -0.131531
     28          6           0        5.237791   -1.503014    0.161471
     29         16           0       -7.917625   -2.549664   -0.141928
     30         16           0        7.807407   -2.470068   -0.079930
     31          8           0       -8.486419   -2.461513    1.242282
     32          8           0       -8.825603   -2.085099   -1.239940
     33          8           0       -7.119567   -3.786690   -0.426675
     34          8           0        9.002093   -2.020045   -0.812821
     35          8           0        8.146504   -2.438276    1.552027
     36          8           0        7.175858   -3.780574   -0.347293
     37          1           0       -6.444174    2.178718   -0.042999
     38          1           0       -5.035064   -2.620759    0.260512
     39          1           0       -8.023020    0.309527   -0.640427
     40          1           0       -2.341969   -1.062529   -0.605598
     41          1           0       -2.489306   -1.064661    1.159718
     42          1           0       -4.025069    3.462127    1.064739
     43          1           0       -4.425734    3.359235   -0.661042
     44          1           0       -2.323522    4.765561   -0.092409
     45          1           0       -2.070039    3.506440   -1.326318
     46          1           0       -1.532602    3.191071    1.675966
     47          1           0        0.798283    3.114547   -1.324478
     48          1           0       -0.032231   -0.252597    0.283120
     49          1           0        2.479373    3.811611    1.135163
     50          1           0        2.288487    4.801053   -0.328242
     51          1           0        4.487346    3.532439   -0.251292
     52          1           0        3.527015    3.157257   -1.699570
     53          1           0        2.269028   -1.178747   -0.321472
     54          1           0        2.551881   -0.777329    1.380461
     55          1           0        6.311903    2.149553   -0.849040
     56          1           0        8.008219    0.305652   -0.742586
     57          1           0        4.968203   -2.530348    0.410085
     58          1           0        8.267815   -3.373965    1.804718
 ---------------------------------------------------------------------

 The electronic state is 1-A.
 Alpha  occ. eigenvalues --  -89.14935 -89.01870 -19.21107 -19.19701 -19.16657
 Alpha  occ. eigenvalues --  -19.16562 -19.02950 -19.02912 -19.02755 -14.45957
 Alpha  occ. eigenvalues --  -14.44586 -10.30955 -10.30744 -10.29986 -10.29927
 Alpha  occ. eigenvalues --  -10.29540 -10.29492 -10.29228 -10.27005 -10.26531
 Alpha  occ. eigenvalues --  -10.26462 -10.25934 -10.25780 -10.25582 -10.25435
 Alpha  occ. eigenvalues --  -10.25411 -10.25350 -10.25319 -10.24923 -10.24856
 Alpha  occ. eigenvalues --  -10.24551 -10.22124 -10.21538 -10.19573 -10.19469
 Alpha  occ. eigenvalues --  -10.19045  -8.18098  -8.04700  -6.14521  -6.14366
 Alpha  occ. eigenvalues --   -6.14226  -6.01034  -6.01003  -6.00992  -1.15769
 Alpha  occ. eigenvalues --   -1.09462  -1.06121  -1.06007  -1.05255  -1.03057
 Alpha  occ. eigenvalues --   -1.01754  -0.92526  -0.89717  -0.89008  -0.88495
 Alpha  occ. eigenvalues --   -0.88225  -0.87725  -0.86805  -0.85246  -0.82489
 Alpha  occ. eigenvalues --   -0.81576  -0.80050  -0.77631  -0.77050  -0.74925
 Alpha  occ. eigenvalues --   -0.74378  -0.73270  -0.71287  -0.68491  -0.67999
 Alpha  occ. eigenvalues --   -0.66437  -0.65253  -0.64669  -0.62455  -0.61518
 Alpha  occ. eigenvalues --   -0.59916  -0.58686  -0.58013  -0.57660  -0.57068
 Alpha  occ. eigenvalues --   -0.55953  -0.55010  -0.54502  -0.54176  -0.53226
 Alpha  occ. eigenvalues --   -0.52539  -0.52483  -0.51327  -0.50840  -0.50127
 Alpha  occ. eigenvalues --   -0.49650  -0.49244  -0.48699  -0.48361  -0.47756
 Alpha  occ. eigenvalues --   -0.47688  -0.46740  -0.46346  -0.45873  -0.45714
 Alpha  occ. eigenvalues --   -0.45114  -0.44781  -0.44485  -0.44244  -0.43919
 Alpha  occ. eigenvalues --   -0.43242  -0.43019  -0.42263  -0.41579  -0.40647
 Alpha  occ. eigenvalues --   -0.40029  -0.39976  -0.39374  -0.38876  -0.38522
 Alpha  occ. eigenvalues --   -0.38021  -0.36903  -0.36407  -0.36187  -0.35924
 Alpha  occ. eigenvalues --   -0.34872  -0.34599  -0.34122  -0.34061  -0.32054
 Alpha  occ. eigenvalues --   -0.31388  -0.31333  -0.30589  -0.27005  -0.26400
 Alpha  occ. eigenvalues --   -0.23996  -0.23748  -0.23571  -0.21011  -0.20672
 Alpha  occ. eigenvalues --   -0.19791  -0.16604
 Alpha virt. eigenvalues --   -0.13661  -0.07434  -0.07170  -0.04637  -0.02601
 Alpha virt. eigenvalues --   -0.00636   0.00001   0.00265   0.00850   0.01015
 Alpha virt. eigenvalues --    0.02125   0.03025   0.03923   0.04010   0.04851

 Mulliken atomic charges:
              1
     1  C   -0.001866
     2  C    0.187634
     3  C   -0.128160
     4  C    0.052862
     5  C   -0.240738
     6  C    0.090730
     7  C    0.169900
     8  C    0.083206
     9  N   -0.257469
    10  C    0.090961
    11  C    0.047363
    12  C    0.156467
    13  C   -0.113109
    14  O   -0.320118
    15  C    0.129446
    16  C   -0.098061
    17  C    0.009141
    18  C    0.038786
    19  C    0.095718
    20  N   -0.314337
    21  C    0.081687
    22  C    0.186494
    23  C   -0.155848
    24  C    0.268411
    25  C   -0.010376
    26  C    0.108780
    27  C   -0.252005
    28  C    0.050821
    29  S    0.989344
    30  S    0.994586
    31  O   -0.516047
    32  O   -0.518965
    33  O   -0.522726
    34  O   -0.410855
    35  O   -0.325131
    36  O   -0.437846
    37  H   -0.019184
    38  H   -0.020705
    39  H    0.004892
    40  H    0.081526
    41  H    0.079796
    42  H    0.058527
    43  H    0.058206
    44  H    0.030994
    45  H    0.024510
    46  H    0.026431
    47  H    0.011845
    48  H   -0.026307
    49  H    0.032245
    50  H    0.026533
    51  H    0.048032
    52  H    0.045596
    53  H    0.079173
    54  H    0.079785
    55  H   -0.010843
    56  H    0.005186
    57  H   -0.015260
    58  H    0.190342
 Sum of Mulliken atomic charges =   0.00000

 Dipole moment (field-independent basis, Debye):
    X=             22.8601    Y=             16.8977    Z=              1.5663  Tot=             28.4705
 Quadrupole moment (field-independent basis, Debye-Ang):
   XX=           -439.0289   YY=           -227.4847   ZZ=           -224.7095
   XY=            -76.0056   XZ=              7.6108   YZ=            -15.2202

 Normal termination of Gaussian 09 at Sat Mar 21 15:49:37 2015.
