 Gaussian 09, Revision B.01,
 Gaussian 09:  EM64L-G09RevB.01 12-Aug-2010

 ------------------------------------------------------
 # opt=modredundant B3LYP/cc-pVDZ Geom=PrintInputOrient
 ------------------------------------------------------

 -------------------------------
 CY3 Dihedral Scan at MP2/6-31G*
 -------------------------------
 Symbolic Z-matrix:
 Charge =  0 Multiplicity = 1

 SCF Done:  E(RB3LYP) =  -2398.26711824     A.U. after   22 cycles
 SCF Done:  E(RB3LYP) =  -2398.26712607     A.U. after    8 cycles
 Optimization completed.
    -- Stationary point found.
 SCF Done:  E(RB3LYP) =  -2398.26428982     A.U. after   17 cycles
 SCF Done:  E(RB3LYP) =  -2398.26364067     A.U. after   12 cycles
 SCF Done:  E(RB3LYP) =  -2398.26480046     A.U. after   13 cycles
 SCF Done:  E(RB3LYP) =  -2398.26485789     A.U. after   11 cycles
 SCF Done:  E(RB3LYP) =  -2398.26486794     A.U. after   10 cycles
 SCF Done:  E(RB3LYP) =  -2398.26487071     A.U. after   10 cycles
 SCF Done:  E(RB3LYP) =  -2398.26487129     A.U. after    8 cycles
 SCF Done:  E(RB3LYP) =  -2398.26487150     A.U. after    8 cycles
 Optimization completed.
    -- Stationary point found.
 SCF Done:  E(RB3LYP) =  -2398.25857596     A.U. after   19 cycles
 SCF Done:  E(RB3LYP) =  -2398.25181395     A.U. after   24 cycles
 SCF Done:  E(RB3LYP) =  -2398.25873970     A.U. after   24 cycles
 SCF Done:  E(RB3LYP) =  -2398.25878695     A.U. after   16 cycles
 SCF Done:  E(RB3LYP) =  -2398.25889009     A.U. after   13 cycles
 SCF Done:  E(RB3LYP) =  -2398.25889487     A.U. after   10 cycles
 SCF Done:  E(RB3LYP) =  -2398.25889765     A.U. after   10 cycles
 SCF Done:  E(RB3LYP) =  -2398.25889864     A.U. after    8 cycles
 SCF Done:  E(RB3LYP) =  -2398.25889901     A.U. after    8 cycles
 SCF Done:  E(RB3LYP) =  -2398.25889915     A.U. after    8 cycles
 Optimization completed.
    -- Stationary point found.

                         Standard orientation:
 ---------------------------------------------------------------------
 Center     Atomic      Atomic             Coordinates (Angstroms)
 Number     Number       Type             X           Y           Z
 ---------------------------------------------------------------------
      1          6           0       -6.089453    1.137828    0.216901
      2          6           0       -4.790561    0.837348   -0.209654
      3          6           0       -4.357750   -0.499683   -0.340841
      4          6           0       -5.273369   -1.537444   -0.293685
      5          6           0       -6.618799   -1.227916   -0.034674
      6          6           0       -7.008502    0.088024    0.260287
      7          6           0       -2.846937   -0.518226   -0.274742
      8          6           0       -2.508682    0.928770    0.006396
      9          7           0       -3.627943    1.651080   -0.112020
     10          6           0       -3.676694    3.117421   -0.013262
     11          6           0       -2.301623    3.736168   -0.272209
     12          6           0       -1.258187    3.005046    0.582096
     13          6           0       -1.243555    1.531461    0.222399
     14          8           0        0.015984    3.637192    0.578779
     15          6           0        1.060737    3.049628   -0.197691
     16          6           0        1.171480    1.553786    0.037254
     17          6           0       -0.051740    0.844186    0.121049
     18          6           0        2.348510    3.767217    0.203114
     19          6           0        3.575936    3.107121   -0.423365
     20          7           0        3.572733    1.670176   -0.153325
     21          6           0        2.412822    0.958081    0.043699
     22          6           0        2.776628   -0.501718    0.239414
     23          6           0        4.279318   -0.494468    0.073768
     24          6           0        4.693359    0.832099   -0.164701
     25          6           0        6.030408    1.166807   -0.384027
     26          6           0        6.972299    0.132144   -0.343264
     27          6           0        6.559933   -1.176571   -0.086923
     28          6           0        5.210955   -1.516542    0.112704
     29         16           0       -7.862010   -2.585987   -0.009456
     30         16           0        7.788044   -2.478831   -0.057442
     31          8           0       -8.854092   -2.123498    1.013253
     32          8           0       -8.343851   -2.562889   -1.429619
     33          8           0       -7.041060   -3.783971    0.366551
     34          8           0        9.021281   -1.987177   -0.693682
     35          8           0        8.035826   -2.555672    1.589189
     36          8           0        7.170238   -3.764903   -0.446765
     37          1           0       -6.394703    2.158589    0.458886
     38          1           0       -4.993749   -2.590038   -0.374556
     39          1           0       -8.041754    0.254027    0.570040
     40          1           0       -2.362515   -0.838290   -1.213867
     41          1           0       -2.478164   -1.184868    0.521010
     42          1           0       -4.047799    3.380453    0.992060
     43          1           0       -4.421855    3.469167   -0.740626
     44          1           0       -2.329999    4.802395   -0.004886
     45          1           0       -2.039647    3.660261   -1.340330
     46          1           0       -1.587661    3.077114    1.636433
     47          1           0        0.855567    3.221121   -1.275138
     48          1           0       -0.057748   -0.245820    0.030481
     49          1           0        2.422817    3.736482    1.301893
     50          1           0        2.305859    4.823486   -0.098360
     51          1           0        4.494501    3.538693   -0.000911
     52          1           0        3.605469    3.268609   -1.516668
     53          1           0        2.272051   -1.142960   -0.502672
     54          1           0        2.466135   -0.858941    1.234869
     55          1           0        6.344225    2.189819   -0.592866
     56          1           0        8.029032    0.333273   -0.520301
     57          1           0        4.926828   -2.556667    0.277907
     58          1           0        8.169247   -3.503671    1.783470
 ---------------------------------------------------------------------

 The electronic state is 1-A.
 Alpha  occ. eigenvalues --  -89.14992 -89.01706 -19.21171 -19.19741 -19.16707
 Alpha  occ. eigenvalues --  -19.16617 -19.02768 -19.02730 -19.02661 -14.45788
 Alpha  occ. eigenvalues --  -14.44730 -10.31055 -10.30906 -10.30017 -10.30007
 Alpha  occ. eigenvalues --  -10.29634 -10.29591 -10.29145 -10.27102 -10.26616
 Alpha  occ. eigenvalues --  -10.26598 -10.26031 -10.25864 -10.25665 -10.25462
 Alpha  occ. eigenvalues --  -10.25448 -10.25333 -10.25293 -10.24994 -10.24842
 Alpha  occ. eigenvalues --  -10.24655 -10.22125 -10.21498 -10.19436 -10.19236
 Alpha  occ. eigenvalues --  -10.18889  -8.18155  -8.04539  -6.14579  -6.14422
 Alpha  occ. eigenvalues --   -6.14284  -6.00870  -6.00843  -6.00834  -1.15822
 Alpha  occ. eigenvalues --   -1.09487  -1.06168  -1.06019  -1.05316  -1.03106
 Alpha  occ. eigenvalues --   -1.01599  -0.92621  -0.89737  -0.89030  -0.88327
 Alpha  occ. eigenvalues --   -0.88085  -0.87802  -0.86825  -0.85113  -0.82557
 Alpha  occ. eigenvalues --   -0.81663  -0.80038  -0.77668  -0.77071  -0.74914
 Alpha  occ. eigenvalues --   -0.74427  -0.73264  -0.71364  -0.68498  -0.68034
 Alpha  occ. eigenvalues --   -0.66488  -0.65270  -0.64733  -0.62489  -0.61466
 Alpha  occ. eigenvalues --   -0.60001  -0.58772  -0.58073  -0.57691  -0.57127
 Alpha  occ. eigenvalues --   -0.56056  -0.54991  -0.54511  -0.54167  -0.53226
 Alpha  occ. eigenvalues --   -0.52566  -0.52448  -0.51403  -0.50906  -0.50189
 Alpha  occ. eigenvalues --   -0.49695  -0.49294  -0.48739  -0.48375  -0.47850
 Alpha  occ. eigenvalues --   -0.47756  -0.46817  -0.46391  -0.45783  -0.45712
 Alpha  occ. eigenvalues --   -0.45117  -0.44759  -0.44588  -0.44230  -0.43903
 Alpha  occ. eigenvalues --   -0.43256  -0.43083  -0.42324  -0.41612  -0.40703
 Alpha  occ. eigenvalues --   -0.40030  -0.39989  -0.39396  -0.38943  -0.38235
 Alpha  occ. eigenvalues --   -0.38102  -0.36801  -0.36296  -0.36224  -0.35839
 Alpha  occ. eigenvalues --   -0.34835  -0.34585  -0.34177  -0.34147  -0.32075
 Alpha  occ. eigenvalues --   -0.31454  -0.31389  -0.30655  -0.27086  -0.26466
 Alpha  occ. eigenvalues --   -0.23971  -0.23619  -0.23538  -0.20839  -0.20601
 Alpha  occ. eigenvalues --   -0.19697  -0.16465
 Alpha virt. eigenvalues --   -0.13740  -0.07505  -0.07257  -0.04712  -0.02047
 Alpha virt. eigenvalues --   -0.01331  -0.00071   0.00219   0.00804   0.00979
 Alpha virt. eigenvalues --    0.02158   0.02957   0.03794   0.04107   0.04915

 Mulliken atomic charges:
              1
     1  C    0.012368
     2  C    0.160376
     3  C   -0.122077
     4  C    0.058302
     5  C   -0.243634
     6  C    0.105992
     7  C    0.149253
     8  C    0.089649
     9  N   -0.250607
    10  C    0.086938
    11  C    0.053013
    12  C    0.156738
    13  C   -0.100233
    14  O   -0.320817
    15  C    0.131030
    16  C   -0.100753
    17  C    0.010308
    18  C    0.038463
    19  C    0.095652
    20  N   -0.313836
    21  C    0.083391
    22  C    0.186958
    23  C   -0.155965
    24  C    0.268246
    25  C   -0.010091
    26  C    0.108858
    27  C   -0.251878
    28  C    0.051308
    29  S    0.988159
    30  S    0.994167
    31  O   -0.521132
    32  O   -0.516017
    33  O   -0.525859
    34  O   -0.410989
    35  O   -0.324796
    36  O   -0.437033
    37  H   -0.025182
    38  H   -0.022099
    39  H   -0.004889
    40  H    0.078309
    41  H    0.079514
    42  H    0.058988
    43  H    0.057315
    44  H    0.031041
    45  H    0.024078
    46  H    0.027568
    47  H    0.011774
    48  H   -0.025094
    49  H    0.032645
    50  H    0.026930
    51  H    0.048423
    52  H    0.045887
    53  H    0.079402
    54  H    0.081018
    55  H   -0.010488
    56  H    0.005434
    57  H   -0.014595
    58  H    0.190571
 Sum of Mulliken atomic charges =   0.00000

 Dipole moment (field-independent basis, Debye):
    X=             23.0979    Y=             17.1252    Z=              1.0850  Tot=             28.7744
 Quadrupole moment (field-independent basis, Debye-Ang):
   XX=           -437.4189   YY=           -226.7860   ZZ=           -225.5744
   XY=            -77.3789   XZ=              9.0449   YZ=            -11.6444

 Normal termination of Gaussian 09 at Sun Mar 22 09:26:59 2015.
