 Gaussian 09, Revision B.01,
 Gaussian 09:  EM64L-G09RevB.01 12-Aug-2010

 ------------------------------------------------------
 # opt=modredundant B3LYP/cc-pVDZ Geom=PrintInputOrient
 ------------------------------------------------------

 -------------------------------
 CY3 Dihedral Scan at MP2/6-31G*
 -------------------------------
 Symbolic Z-matrix:
 Charge =  0 Multiplicity = 1

 SCF Done:  E(RB3LYP) =  -2398.26711824     A.U. after   22 cycles
 SCF Done:  E(RB3LYP) =  -2398.26712599     A.U. after    9 cycles
 Optimization completed.
    -- Stationary point found.
 SCF Done:  E(RB3LYP) =  -2398.26406263     A.U. after   14 cycles
 SCF Done:  E(RB3LYP) =  -2398.26382626     A.U. after   12 cycles
 SCF Done:  E(RB3LYP) =  -2398.26440676     A.U. after   13 cycles
 SCF Done:  E(RB3LYP) =  -2398.26443822     A.U. after   11 cycles
 SCF Done:  E(RB3LYP) =  -2398.26444375     A.U. after   10 cycles
 SCF Done:  E(RB3LYP) =  -2398.26444666     A.U. after   11 cycles
 SCF Done:  E(RB3LYP) =  -2398.26444909     A.U. after   11 cycles
 SCF Done:  E(RB3LYP) =  -2398.26445123     A.U. after   11 cycles
 SCF Done:  E(RB3LYP) =  -2398.26489704     A.U. after    8 cycles
 SCF Done:  E(RB3LYP) =  -2398.26489704     A.U. after    7 cycles
 Optimization completed on the basis of negligible forces.
    -- Stationary point found.
 SCF Done:  E(RB3LYP) =  -2398.25576764     A.U. after   16 cycles
 SCF Done:  E(RB3LYP) =  -2398.25678739     A.U. after   13 cycles
 SCF Done:  E(RB3LYP) =  -2398.25678278     A.U. after   21 cycles
 SCF Done:  E(RB3LYP) =  -2398.25683551     A.U. after   15 cycles
 SCF Done:  E(RB3LYP) =  -2398.25685220     A.U. after   12 cycles
 SCF Done:  E(RB3LYP) =  -2398.25685320     A.U. after   10 cycles
 SCF Done:  E(RB3LYP) =  -2398.25685326     A.U. after    7 cycles
 SCF Done:  E(RB3LYP) =  -2398.25685327     A.U. after    7 cycles
 Optimization completed.
    -- Stationary point found.

                         Standard orientation:
 ---------------------------------------------------------------------
 Center     Atomic      Atomic             Coordinates (Angstroms)
 Number     Number       Type             X           Y           Z
 ---------------------------------------------------------------------
      1          6           0       -6.115624    1.167460   -0.078173
      2          6           0       -4.777421    0.818230    0.128229
      3          6           0       -4.360177   -0.527462    0.157725
      4          6           0       -5.312355   -1.510259    0.378379
      5          6           0       -6.621436   -1.225167   -0.052301
      6          6           0       -7.022372    0.111941   -0.232098
      7          6           0       -2.856681   -0.537520    0.320736
      8          6           0       -2.505794    0.932221    0.332032
      9          7           0       -3.633756    1.645777    0.207289
     10          6           0       -3.679854    3.113302    0.107184
     11          6           0       -2.313455    3.691399   -0.268083
     12          6           0       -1.237149    3.054777    0.619937
     13          6           0       -1.233343    1.551629    0.419074
     14          8           0        0.034930    3.679347    0.503826
     15          6           0        1.036792    3.025588   -0.276219
     16          6           0        1.167448    1.556915    0.085307
     17          6           0       -0.044930    0.859210    0.313672
     18          6           0        2.342106    3.775015   -0.015019
     19          6           0        3.533182    3.062847   -0.654485
     20          7           0        3.552461    1.654728   -0.261910
     21          6           0        2.408979    0.963086    0.066742
     22          6           0        2.790801   -0.475048    0.364122
     23          6           0        4.280669   -0.483059    0.106375
     24          6           0        4.673201    0.817805   -0.270274
     25          6           0        5.992989    1.130782   -0.599555
     26          6           0        6.940148    0.102661   -0.528645
     27          6           0        6.550356   -1.178840   -0.135607
     28          6           0        5.217499   -1.498696    0.175333
     29         16           0       -7.835277   -2.599413   -0.214263
     30         16           0        7.783385   -2.474966   -0.068928
     31          8           0       -7.400481   -3.545025    0.865955
     32          8           0       -9.158980   -1.929737   -0.010183
     33          8           0       -7.555763   -3.061423   -1.613603
     34          8           0        8.968926   -2.044882   -0.828003
     35          8           0        8.145849   -2.405800    1.556868
     36          8           0        7.145562   -3.790099   -0.295897
     37          1           0       -6.449833    2.205987   -0.121986
     38          1           0       -5.060068   -2.547012    0.614156
     39          1           0       -8.075478    0.298540   -0.449920
     40          1           0       -2.346819   -1.053201   -0.510226
     41          1           0       -2.525446   -1.027130    1.251903
     42          1           0       -4.028591    3.507723    1.076421
     43          1           0       -4.439723    3.367667   -0.644412
     44          1           0       -2.331549    4.780809   -0.119608
     45          1           0       -2.092446    3.496890   -1.330402
     46          1           0       -1.526928    3.239479    1.672147
     47          1           0        0.770627    3.101633   -1.351333
     48          1           0       -0.048504   -0.234348    0.328641
     49          1           0        2.481278    3.838377    1.076026
     50          1           0        2.276623    4.801458   -0.403029
     51          1           0        4.473222    3.529060   -0.326478
     52          1           0        3.496748    3.129960   -1.757413
     53          1           0        2.244898   -1.177084   -0.288276
     54          1           0        2.543707   -0.745995    1.403625
     55          1           0        6.288893    2.131742   -0.914458
     56          1           0        7.982780    0.287048   -0.788222
     57          1           0        4.948369   -2.520567    0.445979
     58          1           0        8.255765   -3.336453    1.832229
 ---------------------------------------------------------------------

 The electronic state is 1-A.
 Alpha  occ. eigenvalues --  -89.14920 -89.01884 -19.21086 -19.19692 -19.16647
 Alpha  occ. eigenvalues --  -19.16546 -19.02980 -19.02917 -19.02785 -14.45974
 Alpha  occ. eigenvalues --  -14.44564 -10.30943 -10.30721 -10.29980 -10.29911
 Alpha  occ. eigenvalues --  -10.29523 -10.29471 -10.29248 -10.26982 -10.26512
 Alpha  occ. eigenvalues --  -10.26442 -10.25912 -10.25758 -10.25563 -10.25454
 Alpha  occ. eigenvalues --  -10.25395 -10.25331 -10.25284 -10.24910 -10.24859
 Alpha  occ. eigenvalues --  -10.24530 -10.22212 -10.21426 -10.19764 -10.19331
 Alpha  occ. eigenvalues --  -10.19052  -8.18082  -8.04715  -6.14505  -6.14350
 Alpha  occ. eigenvalues --   -6.14210  -6.01049  -6.01019  -6.01008  -1.15755
 Alpha  occ. eigenvalues --   -1.09452  -1.06137  -1.05990  -1.05235  -1.03047
 Alpha  occ. eigenvalues --   -1.01772  -0.92505  -0.89722  -0.89017  -0.88524
 Alpha  occ. eigenvalues --   -0.88232  -0.87710  -0.86806  -0.85202  -0.82474
 Alpha  occ. eigenvalues --   -0.81554  -0.80026  -0.77594  -0.77062  -0.74959
 Alpha  occ. eigenvalues --   -0.74366  -0.73261  -0.71268  -0.68480  -0.67982
 Alpha  occ. eigenvalues --   -0.66423  -0.65242  -0.64655  -0.62463  -0.61541
 Alpha  occ. eigenvalues --   -0.59888  -0.58666  -0.58013  -0.57652  -0.57067
 Alpha  occ. eigenvalues --   -0.55878  -0.55169  -0.54503  -0.54179  -0.53206
 Alpha  occ. eigenvalues --   -0.52510  -0.52438  -0.51321  -0.50812  -0.50119
 Alpha  occ. eigenvalues --   -0.49623  -0.49237  -0.48697  -0.48342  -0.47733
 Alpha  occ. eigenvalues --   -0.47662  -0.46716  -0.46329  -0.45911  -0.45702
 Alpha  occ. eigenvalues --   -0.45220  -0.44773  -0.44474  -0.44182  -0.43925
 Alpha  occ. eigenvalues --   -0.43263  -0.43009  -0.42252  -0.41547  -0.40622
 Alpha  occ. eigenvalues --   -0.40034  -0.39965  -0.39389  -0.38856  -0.38436
 Alpha  occ. eigenvalues --   -0.38070  -0.36895  -0.36447  -0.36173  -0.35898
 Alpha  occ. eigenvalues --   -0.34846  -0.34619  -0.34113  -0.34053  -0.32055
 Alpha  occ. eigenvalues --   -0.31371  -0.31316  -0.30584  -0.27006  -0.26476
 Alpha  occ. eigenvalues --   -0.23978  -0.23768  -0.23580  -0.21008  -0.20708
 Alpha  occ. eigenvalues --   -0.19811  -0.16626
 Alpha virt. eigenvalues --   -0.13640  -0.07413  -0.07149  -0.04598  -0.02589
 Alpha virt. eigenvalues --   -0.00662   0.00011   0.00277   0.00867   0.01050
 Alpha virt. eigenvalues --    0.02120   0.03041   0.03940   0.04012   0.04907

 Mulliken atomic charges:
              1
     1  C   -0.020972
     2  C    0.213667
     3  C   -0.149453
     4  C    0.068523
     5  C   -0.250150
     6  C    0.111677
     7  C    0.159180
     8  C    0.087502
     9  N   -0.254762
    10  C    0.090014
    11  C    0.046441
    12  C    0.156398
    13  C   -0.120004
    14  O   -0.320130
    15  C    0.129197
    16  C   -0.098009
    17  C    0.009329
    18  C    0.038713
    19  C    0.095776
    20  N   -0.314391
    21  C    0.081675
    22  C    0.186413
    23  C   -0.155693
    24  C    0.268357
    25  C   -0.010403
    26  C    0.108941
    27  C   -0.251962
    28  C    0.050415
    29  S    0.989917
    30  S    0.994838
    31  O   -0.522796
    32  O   -0.517503
    33  O   -0.517764
    34  O   -0.410681
    35  O   -0.325213
    36  O   -0.438036
    37  H   -0.027110
    38  H   -0.005308
    39  H   -0.001976
    40  H    0.078459
    41  H    0.079398
    42  H    0.057749
    43  H    0.061132
    44  H    0.031050
    45  H    0.025122
    46  H    0.026057
    47  H    0.012066
    48  H   -0.026414
    49  H    0.032137
    50  H    0.026494
    51  H    0.047964
    52  H    0.045713
    53  H    0.079433
    54  H    0.079574
    55  H   -0.010857
    56  H    0.005139
    57  H   -0.015198
    58  H    0.190329
 Sum of Mulliken atomic charges =   0.00000

 Dipole moment (field-independent basis, Debye):
    X=             22.4146    Y=             17.2132    Z=              2.2097  Tot=             28.3477
 Quadrupole moment (field-independent basis, Debye-Ang):
   XX=           -432.8209   YY=           -229.0962   ZZ=           -224.3803
   XY=            -76.8650   XZ=              2.8450   YZ=            -16.8419

 Normal termination of Gaussian 09 at Sat Mar 21 08:00:05 2015.
