 Gaussian 09, Revision B.01,
 Gaussian 09:  EM64L-G09RevB.01 12-Aug-2010

 ------------------------------------------------------
 # opt=modredundant B3LYP/cc-pVDZ Geom=PrintInputOrient
 ------------------------------------------------------

 -------------------------------
 CY3 Dihedral Scan at MP2/6-31G*
 -------------------------------
 Symbolic Z-matrix:
 Charge =  0 Multiplicity = 1

 SCF Done:  E(RB3LYP) =  -2398.26711824     A.U. after   22 cycles
 SCF Done:  E(RB3LYP) =  -2398.26712608     A.U. after    8 cycles
 Optimization completed.
    -- Stationary point found.
 SCF Done:  E(RB3LYP) =  -2398.25998917     A.U. after   17 cycles
 SCF Done:  E(RB3LYP) =  -2398.26295029     A.U. after   12 cycles
 SCF Done:  E(RB3LYP) =  -2398.26386269     A.U. after   16 cycles
 SCF Done:  E(RB3LYP) =  -2398.26392646     A.U. after   11 cycles
 SCF Done:  E(RB3LYP) =  -2398.26393031     A.U. after    8 cycles
 SCF Done:  E(RB3LYP) =  -2398.26393089     A.U. after    8 cycles
 SCF Done:  E(RB3LYP) =  -2398.26393101     A.U. after    8 cycles
 SCF Done:  E(RB3LYP) =  -2398.26393109     A.U. after    7 cycles
 Optimization completed.
    -- Stationary point found.
 SCF Done:  E(RB3LYP) =  -2398.25330760     A.U. after   15 cycles
 SCF Done:  E(RB3LYP) =  -2398.25330742     A.U. after    8 cycles
 SCF Done:  E(RB3LYP) =  -2398.25330784     A.U. after    9 cycles
 SCF Done:  E(RB3LYP) =  -2398.24877061     A.U. after   18 cycles
 SCF Done:  E(RB3LYP) =  -2398.25330781     A.U. after   18 cycles
 SCF Done:  E(RB3LYP) =  -2398.25330774     A.U. after   12 cycles
 SCF Done:  E(RB3LYP) =  -2398.25330813     A.U. after   11 cycles
 SCF Done:  E(RB3LYP) =  -2398.25330826     A.U. after    8 cycles
 SCF Done:  E(RB3LYP) =  -2398.25330824     A.U. after    7 cycles
 SCF Done:  E(RB3LYP) =  -2398.25330827     A.U. after    7 cycles
 Optimization completed.
    -- Stationary point found.

                         Standard orientation:
 ---------------------------------------------------------------------
 Center     Atomic      Atomic             Coordinates (Angstroms)
 Number     Number       Type             X           Y           Z
 ---------------------------------------------------------------------
      1          6           0       -6.121461    1.156637   -0.186827
      2          6           0       -4.777431    0.816420   -0.306599
      3          6           0       -4.325491   -0.525437   -0.338351
      4          6           0       -5.234532   -1.560424   -0.252211
      5          6           0       -6.594457   -1.235657   -0.069689
      6          6           0       -7.029818    0.095808   -0.067540
      7          6           0       -2.857055   -0.450224   -0.707255
      8          6           0       -2.515048    0.934555   -0.208192
      9          7           0       -3.632883    1.672683   -0.340024
     10          6           0       -3.690409    3.127040   -0.152138
     11          6           0       -2.299333    3.752738   -0.282902
     12          6           0       -1.309958    2.956816    0.579474
     13          6           0       -1.269450    1.514112    0.108889
     14          8           0       -0.038134    3.582376    0.704178
     15          6           0        1.049982    3.065012   -0.060882
     16          6           0        1.151916    1.553385    0.041599
     17          6           0       -0.066654    0.838342    0.009880
     18          6           0        2.311274    3.738263    0.477999
     19          6           0        3.573653    3.140658   -0.141250
     20          7           0        3.559691    1.683256   -0.017076
     21          6           0        2.395734    0.957686    0.053578
     22          6           0        2.753743   -0.514424    0.126312
     23          6           0        4.262478   -0.493785    0.035673
     24          6           0        4.683410    0.848695   -0.052439
     25          6           0        6.028260    1.202058   -0.169903
     26          6           0        6.970608    0.167164   -0.183818
     27          6           0        6.550561   -1.159938   -0.078352
     28          6           0        5.194807   -1.516162    0.020400
     29         16           0       -7.796500   -2.604301    0.190444
     30         16           0        7.781049   -2.460668   -0.120270
     31          8           0       -7.631802   -2.860276    1.660018
     32          8           0       -9.106571   -2.002293   -0.216196
     33          8           0       -7.262442   -3.685959   -0.701517
     34          8           0        9.037567   -1.908860   -0.652331
     35          8           0        7.963245   -2.699742    1.518722
     36          8           0        7.182579   -3.701690   -0.658054
     37          1           0       -6.461947    2.194178   -0.170353
     38          1           0       -4.954570   -2.613579   -0.318912
     39          1           0       -8.101940    0.274948    0.031586
     40          1           0       -2.730949   -0.460359   -1.804687
     41          1           0       -2.227998   -1.244690   -0.282167
     42          1           0       -4.128752    3.330315    0.840107
     43          1           0       -4.383074    3.531747   -0.904581
     44          1           0       -2.341423    4.797885    0.056393
     45          1           0       -1.971388    3.751064   -1.335463
     46          1           0       -1.704140    2.949455    1.613269
     47          1           0        0.909316    3.335457   -1.128525
     48          1           0       -0.064550   -0.241660   -0.161159
     49          1           0        2.325233    3.601162    1.571026
     50          1           0        2.281075    4.818803    0.278335
     51          1           0        4.466124    3.524653    0.373122
     52          1           0        3.664622    3.409911   -1.209545
     53          1           0        2.287221   -1.080792   -0.697077
     54          1           0        2.395572   -0.964388    1.066731
     55          1           0        6.348429    2.240240   -0.261037
     56          1           0        8.034066    0.383169   -0.287851
     57          1           0        4.906272   -2.567055    0.068539
     58          1           0        8.044851   -3.666982    1.627874
 ---------------------------------------------------------------------

 The electronic state is 1-A.
 Alpha  occ. eigenvalues --  -89.15111 -89.01609 -19.21270 -19.19765 -19.16833
 Alpha  occ. eigenvalues --  -19.16731 -19.02696 -19.02673 -19.02584 -14.45154
 Alpha  occ. eigenvalues --  -14.45009 -10.31136 -10.30731 -10.30104 -10.29959
 Alpha  occ. eigenvalues --  -10.29789 -10.29736 -10.28948 -10.27239 -10.26764
 Alpha  occ. eigenvalues --  -10.26686 -10.26190 -10.25999 -10.25793 -10.25610
 Alpha  occ. eigenvalues --  -10.25453 -10.25129 -10.25096 -10.25093 -10.24833
 Alpha  occ. eigenvalues --  -10.24767 -10.21817 -10.21248 -10.19552 -10.19012
 Alpha  occ. eigenvalues --  -10.18698  -8.18272  -8.04447  -6.14695  -6.14540
 Alpha  occ. eigenvalues --   -6.14401  -6.00775  -6.00751  -6.00742  -1.15949
 Alpha  occ. eigenvalues --   -1.09515  -1.06387  -1.05577  -1.05425  -1.03238
 Alpha  occ. eigenvalues --   -1.01509  -0.92772  -0.89683  -0.88989  -0.88267
 Alpha  occ. eigenvalues --   -0.87965  -0.87917  -0.86791  -0.84927  -0.82635
 Alpha  occ. eigenvalues --   -0.81790  -0.79952  -0.77647  -0.76859  -0.74894
 Alpha  occ. eigenvalues --   -0.74401  -0.73119  -0.71405  -0.68458  -0.68105
 Alpha  occ. eigenvalues --   -0.66478  -0.65203  -0.64788  -0.62267  -0.61393
 Alpha  occ. eigenvalues --   -0.59997  -0.58854  -0.58016  -0.57820  -0.57124
 Alpha  occ. eigenvalues --   -0.55907  -0.55088  -0.54533  -0.54230  -0.53240
 Alpha  occ. eigenvalues --   -0.52700  -0.52185  -0.51487  -0.50890  -0.50286
 Alpha  occ. eigenvalues --   -0.49554  -0.49191  -0.48885  -0.48335  -0.47966
 Alpha  occ. eigenvalues --   -0.47797  -0.46908  -0.46413  -0.45854  -0.45601
 Alpha  occ. eigenvalues --   -0.45118  -0.44959  -0.44652  -0.43860  -0.43752
 Alpha  occ. eigenvalues --   -0.43423  -0.43176  -0.42112  -0.41579  -0.40801
 Alpha  occ. eigenvalues --   -0.40091  -0.39940  -0.39329  -0.38975  -0.38253
 Alpha  occ. eigenvalues --   -0.37876  -0.36554  -0.36295  -0.36123  -0.35652
 Alpha  occ. eigenvalues --   -0.34876  -0.34441  -0.34300  -0.34149  -0.32240
 Alpha  occ. eigenvalues --   -0.31584  -0.31442  -0.30726  -0.27058  -0.26403
 Alpha  occ. eigenvalues --   -0.23961  -0.23565  -0.23423  -0.20763  -0.20487
 Alpha  occ. eigenvalues --   -0.19502  -0.16390
 Alpha virt. eigenvalues --   -0.14053  -0.07614  -0.07394  -0.04745  -0.01831
 Alpha virt. eigenvalues --   -0.00843  -0.00158   0.00193   0.00745   0.00923
 Alpha virt. eigenvalues --    0.02070   0.02879   0.03775   0.04211   0.04837

 Mulliken atomic charges:
              1
     1  C    0.000243
     2  C    0.201230
     3  C   -0.099910
     4  C    0.049269
     5  C   -0.242771
     6  C    0.098707
     7  C    0.136696
     8  C    0.109042
     9  N   -0.263574
    10  C    0.086955
    11  C    0.048375
    12  C    0.155401
    13  C   -0.110531
    14  O   -0.320445
    15  C    0.131957
    16  C   -0.101370
    17  C    0.016936
    18  C    0.037967
    19  C    0.094860
    20  N   -0.312549
    21  C    0.085122
    22  C    0.186326
    23  C   -0.154659
    24  C    0.267597
    25  C   -0.009437
    26  C    0.109251
    27  C   -0.251453
    28  C    0.051042
    29  S    0.986893
    30  S    0.995067
    31  O   -0.518560
    32  O   -0.519593
    33  O   -0.525323
    34  O   -0.410090
    35  O   -0.324274
    36  O   -0.437302
    37  H   -0.030423
    38  H   -0.020008
    39  H   -0.005791
    40  H    0.085509
    41  H    0.047818
    42  H    0.057047
    43  H    0.056488
    44  H    0.031350
    45  H    0.022044
    46  H    0.030536
    47  H    0.011621
    48  H   -0.027006
    49  H    0.033535
    50  H    0.027580
    51  H    0.049377
    52  H    0.046596
    53  H    0.080309
    54  H    0.083054
    55  H   -0.009921
    56  H    0.006009
    57  H   -0.013965
    58  H    0.191146
 Sum of Mulliken atomic charges =   0.00000

 Dipole moment (field-independent basis, Debye):
    X=             23.1808    Y=             17.2607    Z=             -0.7405  Tot=             28.9107
 Quadrupole moment (field-independent basis, Debye-Ang):
   XX=           -433.5033   YY=           -224.7033   ZZ=           -226.7719
   XY=            -78.3594   XZ=             22.6695   YZ=             -8.4276

 Normal termination of Gaussian 09 at Sat Mar 21 17:32:26 2015.
