 Gaussian 09, Revision B.01,
 Gaussian 09:  EM64L-G09RevB.01 12-Aug-2010

 ------------------------------------------------------
 # opt=modredundant B3LYP/cc-pVDZ Geom=PrintInputOrient
 ------------------------------------------------------

 -------------------------------
 CY3 Dihedral Scan at MP2/6-31G*
 -------------------------------
 Symbolic Z-matrix:
 Charge =  0 Multiplicity = 1

 SCF Done:  E(RB3LYP) =  -2398.26711824     A.U. after   22 cycles
 SCF Done:  E(RB3LYP) =  -2398.26712607     A.U. after    8 cycles
 Optimization completed.
    -- Stationary point found.
 SCF Done:  E(RB3LYP) =  -2398.26125098     A.U. after   13 cycles
 SCF Done:  E(RB3LYP) =  -2398.26568600     A.U. after   13 cycles
 SCF Done:  E(RB3LYP) =  -2398.26606654     A.U. after   11 cycles
 SCF Done:  E(RB3LYP) =  -2398.26609520     A.U. after   11 cycles
 SCF Done:  E(RB3LYP) =  -2398.26610030     A.U. after    9 cycles
 SCF Done:  E(RB3LYP) =  -2398.26610259     A.U. after   10 cycles
 SCF Done:  E(RB3LYP) =  -2398.26610373     A.U. after    8 cycles
 SCF Done:  E(RB3LYP) =  -2398.26610414     A.U. after    8 cycles
 Optimization completed.
    -- Stationary point found.
 SCF Done:  E(RB3LYP) =  -2398.26307329     A.U. after   17 cycles
 SCF Done:  E(RB3LYP) =  -2398.26306898     A.U. after   14 cycles
 SCF Done:  E(RB3LYP) =  -2398.26311857     A.U. after   16 cycles
 SCF Done:  E(RB3LYP) =  -2398.26342614     A.U. after   12 cycles
 SCF Done:  E(RB3LYP) =  -2398.26342776     A.U. after   11 cycles
 SCF Done:  E(RB3LYP) =  -2398.26342830     A.U. after    8 cycles
 SCF Done:  E(RB3LYP) =  -2398.26342818     A.U. after   11 cycles
 SCF Done:  E(RB3LYP) =  -2398.26342834     A.U. after    8 cycles
 SCF Done:  E(RB3LYP) =  -2398.26342839     A.U. after    8 cycles
 SCF Done:  E(RB3LYP) =  -2398.26342840     A.U. after    7 cycles
 Optimization completed.
    -- Stationary point found.

                         Standard orientation:
 ---------------------------------------------------------------------
 Center     Atomic      Atomic             Coordinates (Angstroms)
 Number     Number       Type             X           Y           Z
 ---------------------------------------------------------------------
      1          6           0       -6.080618    1.134822   -0.307601
      2          6           0       -4.749159    0.793301   -0.059380
      3          6           0       -4.329156   -0.531205    0.155469
      4          6           0       -5.253872   -1.562244    0.125579
      5          6           0       -6.601379   -1.240127   -0.104474
      6          6           0       -7.003521    0.087272   -0.328926
      7          6           0       -2.833298   -0.518288    0.364107
      8          6           0       -2.491425    0.949893    0.262986
      9          7           0       -3.613070    1.636505    0.006933
     10          6           0       -3.660623    3.088207   -0.226258
     11          6           0       -2.273254    3.649707   -0.545273
     12          6           0       -1.262428    3.102916    0.470511
     13          6           0       -1.233140    1.590553    0.392827
     14          8           0        0.006597    3.739981    0.396525
     15          6           0        1.107147    3.049225   -0.195866
     16          6           0        1.186268    1.594783    0.220409
     17          6           0       -0.036200    0.906506    0.409526
     18          6           0        2.352409    3.810723    0.260143
     19          6           0        3.671587    3.135510   -0.134540
     20          7           0        3.561730    1.673787   -0.146073
     21          6           0        2.420041    0.985470    0.202232
     22          6           0        2.778093   -0.475425    0.403333
     23          6           0        4.263132   -0.493419    0.121481
     24          6           0        4.671042    0.819380   -0.187261
     25          6           0        5.995560    1.137042   -0.491291
     26          6           0        6.929992    0.094701   -0.481652
     27          6           0        6.523083   -1.202531   -0.165186
     28          6           0        5.187387   -1.523215    0.132092
     29         16           0       -7.860379   -2.584371   -0.073920
     30         16           0        7.740905   -2.515279   -0.173334
     31          8           0       -8.351348   -2.487639    1.340438
     32          8           0       -8.841062   -2.154708   -1.121524
     33          8           0       -7.054373   -3.809411   -0.388616
     34          8           0        8.935530   -2.053454   -0.898931
     35          8           0        8.092285   -2.547937    1.456113
     36          8           0        7.090040   -3.806438   -0.484110
     37          1           0       -6.395373    2.166106   -0.478446
     38          1           0       -4.991125   -2.613724    0.259171
     39          1           0       -8.059169    0.271641   -0.535268
     40          1           0       -2.294491   -1.102781   -0.400228
     41          1           0       -2.530061   -0.918496    1.346175
     42          1           0       -4.087253    3.561005    0.674418
     43          1           0       -4.361625    3.266434   -1.053485
     44          1           0       -2.308957    4.747390   -0.490602
     45          1           0       -1.969858    3.370480   -1.567649
     46          1           0       -1.633501    3.367988    1.479348
     47          1           0        1.016690    3.091184   -1.301944
     48          1           0       -0.035383   -0.184422    0.484300
     49          1           0        2.282229    3.883744    1.356885
     50          1           0        2.336819    4.836782   -0.133439
     51          1           0        4.469540    3.420899    0.569712
     52          1           0        3.995751    3.459282   -1.138802
     53          1           0        2.208297   -1.123807   -0.282691
     54          1           0        2.543576   -0.808158    1.428090
     55          1           0        6.303220    2.152744   -0.741036
     56          1           0        7.975721    0.280724   -0.727284
     57          1           0        4.907609   -2.553986    0.353709
     58          1           0        8.210959   -3.493158    1.672012
 ---------------------------------------------------------------------

 The electronic state is 1-A.
 Alpha  occ. eigenvalues --  -89.14971 -89.01747 -19.21149 -19.19716 -19.16695
 Alpha  occ. eigenvalues --  -19.16602 -19.02820 -19.02773 -19.02711 -14.45938
 Alpha  occ. eigenvalues --  -14.44547 -10.30976 -10.30756 -10.30062 -10.30041
 Alpha  occ. eigenvalues --  -10.29517 -10.29380 -10.29243 -10.27053 -10.26598
 Alpha  occ. eigenvalues --  -10.26536 -10.25979 -10.25822 -10.25611 -10.25439
 Alpha  occ. eigenvalues --  -10.25434 -10.25374 -10.25365 -10.24913 -10.24861
 Alpha  occ. eigenvalues --  -10.24588 -10.22205 -10.21463 -10.19561 -10.19426
 Alpha  occ. eigenvalues --  -10.18916  -8.18135  -8.04582  -6.14558  -6.14402
 Alpha  occ. eigenvalues --   -6.14263  -6.00912  -6.00885  -6.00876  -1.15806
 Alpha  occ. eigenvalues --   -1.09446  -1.06135  -1.05913  -1.05295  -1.03097
 Alpha  occ. eigenvalues --   -1.01645  -0.92497  -0.89782  -0.89075  -0.88382
 Alpha  occ. eigenvalues --   -0.88121  -0.87605  -0.86909  -0.85209  -0.82465
 Alpha  occ. eigenvalues --   -0.81564  -0.80103  -0.77645  -0.77111  -0.75019
 Alpha  occ. eigenvalues --   -0.74485  -0.73273  -0.71335  -0.68536  -0.68062
 Alpha  occ. eigenvalues --   -0.66448  -0.65273  -0.64608  -0.62499  -0.61627
 Alpha  occ. eigenvalues --   -0.59750  -0.58616  -0.57929  -0.57534  -0.57125
 Alpha  occ. eigenvalues --   -0.56014  -0.55073  -0.54770  -0.54180  -0.53245
 Alpha  occ. eigenvalues --   -0.52623  -0.52392  -0.51175  -0.50910  -0.50341
 Alpha  occ. eigenvalues --   -0.49783  -0.49244  -0.48736  -0.48382  -0.47832
 Alpha  occ. eigenvalues --   -0.47758  -0.46744  -0.46391  -0.45903  -0.45618
 Alpha  occ. eigenvalues --   -0.45026  -0.44752  -0.44511  -0.44000  -0.43899
 Alpha  occ. eigenvalues --   -0.43473  -0.43206  -0.42352  -0.41764  -0.40714
 Alpha  occ. eigenvalues --   -0.40225  -0.39827  -0.39100  -0.38930  -0.38347
 Alpha  occ. eigenvalues --   -0.37891  -0.36758  -0.36354  -0.36199  -0.35889
 Alpha  occ. eigenvalues --   -0.34864  -0.34723  -0.34176  -0.34144  -0.32085
 Alpha  occ. eigenvalues --   -0.31406  -0.31297  -0.30679  -0.27168  -0.26740
 Alpha  occ. eigenvalues --   -0.23982  -0.23682  -0.23512  -0.20917  -0.20602
 Alpha  occ. eigenvalues --   -0.19675  -0.16512
 Alpha virt. eigenvalues --   -0.13657  -0.07463  -0.07204  -0.04582  -0.02079
 Alpha virt. eigenvalues --   -0.00541   0.00037   0.00268   0.00646   0.00867
 Alpha virt. eigenvalues --    0.02125   0.03101   0.03665   0.04066   0.04739

 Mulliken atomic charges:
              1
     1  C   -0.010383
     2  C    0.223492
     3  C   -0.129501
     4  C    0.037982
     5  C   -0.243177
     6  C    0.114956
     7  C    0.178858
     8  C    0.080925
     9  N   -0.265875
    10  C    0.088591
    11  C    0.045610
    12  C    0.160064
    13  C   -0.116345
    14  O   -0.325176
    15  C    0.141616
    16  C   -0.105583
    17  C    0.006559
    18  C    0.034874
    19  C    0.095528
    20  N   -0.318110
    21  C    0.086209
    22  C    0.184334
    23  C   -0.151695
    24  C    0.267434
    25  C   -0.010007
    26  C    0.107305
    27  C   -0.251181
    28  C    0.050033
    29  S    0.986362
    30  S    0.994712
    31  O   -0.516994
    32  O   -0.520503
    33  O   -0.524956
    34  O   -0.410647
    35  O   -0.325386
    36  O   -0.437271
    37  H   -0.027958
    38  H   -0.024620
    39  H   -0.006383
    40  H    0.081264
    41  H    0.081537
    42  H    0.058174
    43  H    0.061235
    44  H    0.031300
    45  H    0.024980
    46  H    0.027427
    47  H    0.014544
    48  H   -0.026801
    49  H    0.031428
    50  H    0.027843
    51  H    0.050439
    52  H    0.045741
    53  H    0.079589
    54  H    0.079144
    55  H   -0.012425
    56  H    0.005622
    57  H   -0.015202
    58  H    0.190469
 Sum of Mulliken atomic charges =   0.00000

 Dipole moment (field-independent basis, Debye):
    X=             22.9625    Y=             17.0700    Z=              1.6103  Tot=             28.6575
 Quadrupole moment (field-independent basis, Debye-Ang):
   XX=           -434.7619   YY=           -228.1575   ZZ=           -225.3504
   XY=            -77.0656   XZ=             13.8812   YZ=            -14.5404

 Normal termination of Gaussian 09 at Fri Mar 20 09:33:57 2015.
