 Gaussian 09, Revision B.01,
 Gaussian 09:  EM64L-G09RevB.01 12-Aug-2010

 ------------------------------------------------------
 # opt=modredundant B3LYP/cc-pVDZ Geom=PrintInputOrient
 ------------------------------------------------------

 -------------------------------
 CY3 Dihedral Scan at MP2/6-31G*
 -------------------------------
 Symbolic Z-matrix:
 Charge =  0 Multiplicity = 1

 SCF Done:  E(RB3LYP) =  -2398.26711824     A.U. after   22 cycles
 SCF Done:  E(RB3LYP) =  -2398.26712608     A.U. after    8 cycles
 Optimization completed.
    -- Stationary point found.
 SCF Done:  E(RB3LYP) =  -2398.26300831     A.U. after   14 cycles
 SCF Done:  E(RB3LYP) =  -2398.26301499     A.U. after   11 cycles
 SCF Done:  E(RB3LYP) =  -2398.26454503     A.U. after   12 cycles
 SCF Done:  E(RB3LYP) =  -2398.26471570     A.U. after   12 cycles
 SCF Done:  E(RB3LYP) =  -2398.26483840     A.U. after   13 cycles
 SCF Done:  E(RB3LYP) =  -2398.26489867     A.U. after   12 cycles
 SCF Done:  E(RB3LYP) =  -2398.26494811     A.U. after   12 cycles
 SCF Done:  E(RB3LYP) =  -2398.26497505     A.U. after   12 cycles
 Optimization completed.
    -- Stationary point found.
 SCF Done:  E(RB3LYP) =  -2398.24575916     A.U. after   20 cycles
 SCF Done:  E(RB3LYP) =  -2398.26105526     A.U. after   21 cycles
 SCF Done:  E(RB3LYP) =  -2398.26133953     A.U. after   12 cycles
 SCF Done:  E(RB3LYP) =  -2398.26159225     A.U. after   12 cycles
 SCF Done:  E(RB3LYP) =  -2398.26171933     A.U. after   12 cycles
 SCF Done:  E(RB3LYP) =  -2398.26177264     A.U. after   11 cycles
 SCF Done:  E(RB3LYP) =  -2398.26181132     A.U. after   11 cycles
 SCF Done:  E(RB3LYP) =  -2398.26181540     A.U. after   11 cycles
 SCF Done:  E(RB3LYP) =  -2398.26181615     A.U. after    8 cycles
 SCF Done:  E(RB3LYP) =  -2398.26181639     A.U. after    8 cycles
 Optimization completed.
    -- Stationary point found.

                         Standard orientation:
 ---------------------------------------------------------------------
 Center     Atomic      Atomic             Coordinates (Angstroms)
 Number     Number       Type             X           Y           Z
 ---------------------------------------------------------------------
      1          6           0       -5.932493    0.991178    0.927628
      2          6           0       -4.667473    0.730194    0.396511
      3          6           0       -4.364327   -0.450558   -0.308175
      4          6           0       -5.343797   -1.409298   -0.500991
      5          6           0       -6.618870   -1.176181    0.042429
      6          6           0       -6.908619    0.011564    0.734183
      7          6           0       -2.917292   -0.379778   -0.736490
      8          6           0       -2.465298    0.946179   -0.173815
      9          7           0       -3.503400    1.531816    0.434852
     10          6           0       -3.405406    2.834263    1.104677
     11          6           0       -2.300074    3.678586    0.476960
     12          6           0       -0.978975    2.915360    0.415363
     13          6           0       -1.174124    1.529385   -0.180160
     14          8           0       -0.090941    3.704977   -0.381636
     15          6           0        1.171309    3.122936   -0.725350
     16          6           0        1.194131    1.614721   -0.537652
     17          6           0       -0.048609    0.931785   -0.702079
     18          6           0        2.317000    3.777483    0.055893
     19          6           0        3.660622    3.161448   -0.341728
     20          7           0        3.593075    1.700006   -0.295798
     21          6           0        2.412350    0.995047   -0.409507
     22          6           0        2.729939   -0.485746   -0.317690
     23          6           0        4.235279   -0.494571   -0.178841
     24          6           0        4.689178    0.840813   -0.175565
     25          6           0        6.044026    1.164892   -0.081967
     26          6           0        6.957691    0.110141    0.026296
     27          6           0        6.501457   -1.209098    0.042559
     28          6           0        5.139236   -1.536201   -0.071816
     29         16           0       -7.907891   -2.480173   -0.123711
     30         16           0        7.696295   -2.535601    0.165815
     31          8           0       -7.629101   -3.310472    1.095120
     32          8           0       -9.189681   -1.706192   -0.093616
     33          8           0       -7.559226   -3.130947   -1.428640
     34          8           0        9.029048   -2.010765   -0.173964
     35          8           0        7.634557   -2.789224    1.812568
     36          8           0        7.157041   -3.760803   -0.463602
     37          1           0       -6.158791    1.911867    1.468940
     38          1           0       -5.178687   -2.331829   -1.061206
     39          1           0       -7.927104    0.145814    1.102722
     40          1           0       -2.793125   -0.399481   -1.832341
     41          1           0       -2.307469   -1.205138   -0.332070
     42          1           0       -3.228015    2.654554    2.179248
     43          1           0       -4.378111    3.334087    1.009125
     44          1           0       -2.178508    4.608919    1.049492
     45          1           0       -2.579170    3.955868   -0.552315
     46          1           0       -0.559251    2.803940    1.437225
     47          1           0        1.298028    3.340130   -1.801586
     48          1           0       -0.075372   -0.103609   -1.055538
     49          1           0        2.142482    3.636058    1.134995
     50          1           0        2.341490    4.859023   -0.140624
     51          1           0        4.451109    3.494091    0.346974
     52          1           0        3.956107    3.476064   -1.359204
     53          1           0        2.384917   -1.022521   -1.217976
     54          1           0        2.225187   -0.951419    0.544229
     55          1           0        6.394470    2.197064   -0.104886
     56          1           0        8.028562    0.305051    0.087586
     57          1           0        4.826359   -2.581121   -0.087013
     58          1           0        7.697984   -3.757623    1.923278
 ---------------------------------------------------------------------

 The electronic state is 1-A.
 Alpha  occ. eigenvalues --  -89.14840 -89.01954 -19.21010 -19.19457 -19.16568
 Alpha  occ. eigenvalues --  -19.16461 -19.03013 -19.03007 -19.02954 -14.46118
 Alpha  occ. eigenvalues --  -14.44338 -10.31006 -10.30506 -10.29995 -10.29798
 Alpha  occ. eigenvalues --  -10.29409 -10.29347 -10.29326 -10.26864 -10.26460
 Alpha  occ. eigenvalues --  -10.26396 -10.25782 -10.25689 -10.25646 -10.25466
 Alpha  occ. eigenvalues --  -10.25445 -10.25406 -10.25200 -10.24899 -10.24752
 Alpha  occ. eigenvalues --  -10.24523 -10.22399 -10.21684 -10.19830 -10.19556
 Alpha  occ. eigenvalues --  -10.19165  -8.18002  -8.04790  -6.14426  -6.14271
 Alpha  occ. eigenvalues --   -6.14130  -6.01121  -6.01093  -6.01085  -1.15670
 Alpha  occ. eigenvalues --   -1.09098  -1.06367  -1.05738  -1.05155  -1.02962
 Alpha  occ. eigenvalues --   -1.01865  -0.92360  -0.89733  -0.89061  -0.88610
 Alpha  occ. eigenvalues --   -0.88329  -0.87538  -0.86729  -0.85342  -0.82403
 Alpha  occ. eigenvalues --   -0.81353  -0.80123  -0.77581  -0.77249  -0.74994
 Alpha  occ. eigenvalues --   -0.74381  -0.73208  -0.71195  -0.68214  -0.68009
 Alpha  occ. eigenvalues --   -0.66367  -0.65279  -0.64577  -0.62688  -0.61857
 Alpha  occ. eigenvalues --   -0.59665  -0.58545  -0.57842  -0.57637  -0.57091
 Alpha  occ. eigenvalues --   -0.55785  -0.55309  -0.54500  -0.54122  -0.53421
 Alpha  occ. eigenvalues --   -0.52628  -0.52240  -0.51300  -0.50859  -0.50056
 Alpha  occ. eigenvalues --   -0.49566  -0.49219  -0.48630  -0.48312  -0.47860
 Alpha  occ. eigenvalues --   -0.47634  -0.46707  -0.46551  -0.46088  -0.45493
 Alpha  occ. eigenvalues --   -0.45057  -0.44768  -0.44574  -0.44193  -0.43793
 Alpha  occ. eigenvalues --   -0.43503  -0.42904  -0.42123  -0.41558  -0.40601
 Alpha  occ. eigenvalues --   -0.39973  -0.39715  -0.39420  -0.38693  -0.38531
 Alpha  occ. eigenvalues --   -0.38110  -0.36547  -0.36496  -0.36172  -0.35997
 Alpha  occ. eigenvalues --   -0.35082  -0.34952  -0.34041  -0.33957  -0.31970
 Alpha  occ. eigenvalues --   -0.31283  -0.31230  -0.30575  -0.27163  -0.26866
 Alpha  occ. eigenvalues --   -0.24063  -0.23886  -0.23675  -0.21081  -0.20847
 Alpha  occ. eigenvalues --   -0.19884  -0.16721
 Alpha virt. eigenvalues --   -0.13871  -0.07423  -0.07033  -0.04529  -0.02352
 Alpha virt. eigenvalues --   -0.00888  -0.00099   0.00306   0.00835   0.01086
 Alpha virt. eigenvalues --    0.01766   0.03101   0.03478   0.04069   0.05188

 Mulliken atomic charges:
              1
     1  C   -0.006404
     2  C    0.220427
     3  C   -0.134840
     4  C    0.046326
     5  C   -0.242956
     6  C    0.110048
     7  C    0.182631
     8  C    0.086599
     9  N   -0.258924
    10  C    0.096854
    11  C    0.036391
    12  C    0.144159
    13  C   -0.082117
    14  O   -0.326468
    15  C    0.170258
    16  C   -0.169934
    17  C    0.018163
    18  C    0.051269
    19  C    0.091356
    20  N   -0.315607
    21  C    0.071172
    22  C    0.186053
    23  C   -0.157717
    24  C    0.268388
    25  C   -0.011098
    26  C    0.108599
    27  C   -0.252188
    28  C    0.050102
    29  S    0.986991
    30  S    0.994387
    31  O   -0.516500
    32  O   -0.518655
    33  O   -0.523147
    34  O   -0.411317
    35  O   -0.325319
    36  O   -0.438506
    37  H   -0.025718
    38  H   -0.023772
    39  H   -0.005422
    40  H    0.084656
    41  H    0.079742
    42  H    0.056750
    43  H    0.061507
    44  H    0.029685
    45  H    0.038632
    46  H    0.013294
    47  H    0.020705
    48  H   -0.022691
    49  H    0.021594
    50  H    0.027041
    51  H    0.046310
    52  H    0.045818
    53  H    0.078208
    54  H    0.077110
    55  H   -0.011515
    56  H    0.004603
    57  H   -0.015245
    58  H    0.190233
 Sum of Mulliken atomic charges =   0.00000

 Dipole moment (field-independent basis, Debye):
    X=             22.4471    Y=             16.2840    Z=              2.3449  Tot=             27.8306
 Quadrupole moment (field-independent basis, Debye-Ang):
   XX=           -445.2409   YY=           -226.7785   ZZ=           -221.2540
   XY=            -69.3155   XZ=             -1.2225   YZ=             -1.6006

 Normal termination of Gaussian 09 at Thu Mar 19 07:20:28 2015.
