 Gaussian 09, Revision B.01,
 Gaussian 09:  EM64L-G09RevB.01 12-Aug-2010

 ------------------------------------------------------
 # opt=modredundant B3LYP/cc-pVDZ Geom=PrintInputOrient
 ------------------------------------------------------

 -------------------------------
 CY3 Dihedral Scan at MP2/6-31G*
 -------------------------------
 Symbolic Z-matrix:
 Charge =  0 Multiplicity = 1

 SCF Done:  E(RB3LYP) =  -2398.26711824     A.U. after   22 cycles
 SCF Done:  E(RB3LYP) =  -2398.26712601     A.U. after    8 cycles
 Optimization completed.
    -- Stationary point found.
 SCF Done:  E(RB3LYP) =  -2398.26402082     A.U. after   16 cycles
 SCF Done:  E(RB3LYP) =  -2398.26407087     A.U. after   12 cycles
 SCF Done:  E(RB3LYP) =  -2398.26441669     A.U. after   12 cycles
 SCF Done:  E(RB3LYP) =  -2398.26444831     A.U. after   11 cycles
 SCF Done:  E(RB3LYP) =  -2398.26445474     A.U. after   10 cycles
 SCF Done:  E(RB3LYP) =  -2398.26445753     A.U. after   11 cycles
 SCF Done:  E(RB3LYP) =  -2398.26445877     A.U. after   11 cycles
 SCF Done:  E(RB3LYP) =  -2398.26445931     A.U. after   10 cycles
 SCF Done:  E(RB3LYP) =  -2398.26445975     A.U. after    7 cycles
 Optimization completed.
    -- Stationary point found.
 SCF Done:  E(RB3LYP) =  -2398.25478982     A.U. after   16 cycles
 SCF Done:  E(RB3LYP) =  -2398.25614212     A.U. after   13 cycles
 SCF Done:  E(RB3LYP) =  -2398.25619068     A.U. after   12 cycles
 SCF Done:  E(RB3LYP) =  -2398.25620435     A.U. after   12 cycles
 SCF Done:  E(RB3LYP) =  -2398.25620580     A.U. after   11 cycles
 SCF Done:  E(RB3LYP) =  -2398.25620723     A.U. after   11 cycles
 SCF Done:  E(RB3LYP) =  -2398.25620733     A.U. after    7 cycles
 SCF Done:  E(RB3LYP) =  -2398.25620724     A.U. after    7 cycles
 SCF Done:  E(RB3LYP) =  -2398.25620723     A.U. after    6 cycles
 Optimization completed.
    -- Stationary point found.

                         Standard orientation:
 ---------------------------------------------------------------------
 Center     Atomic      Atomic             Coordinates (Angstroms)
 Number     Number       Type             X           Y           Z
 ---------------------------------------------------------------------
      1          6           0       -6.050132    1.127361   -0.490515
      2          6           0       -4.769054    0.768529   -0.057461
      3          6           0       -4.337345   -0.572964   -0.083834
      4          6           0       -5.283635   -1.574438    0.071138
      5          6           0       -6.627578   -1.225099   -0.166039
      6          6           0       -6.987003    0.088361   -0.521508
      7          6           0       -2.835754   -0.584395    0.088626
      8          6           0       -2.495923    0.883647    0.192115
      9          7           0       -3.622752    1.596576    0.063428
     10          6           0       -3.672926    3.066926    0.039780
     11          6           0       -2.296036    3.670289   -0.246468
     12          6           0       -1.252349    2.991531    0.649124
     13          6           0       -1.231562    1.501994    0.366774
     14          8           0        0.019857    3.625803    0.617538
     15          6           0        1.050975    3.022377   -0.164577
     16          6           0        1.179200    1.536197    0.117281
     17          6           0       -0.035981    0.821550    0.265276
     18          6           0        2.342244    3.761573    0.181162
     19          6           0        3.557187    3.093218   -0.460595
     20          7           0        3.572821    1.664495   -0.151411
     21          6           0        2.424240    0.949789    0.102729
     22          6           0        2.805961   -0.501811    0.325229
     23          6           0        4.301361   -0.489857    0.101960
     24          6           0        4.697033    0.833037   -0.184192
     25          6           0        6.022622    1.169526   -0.463112
     26          6           0        6.971986    0.141343   -0.435268
     27          6           0        6.578488   -1.163303   -0.132653
     28          6           0        5.240371   -1.505448    0.128165
     29         16           0       -7.928337   -2.517953   -0.006271
     30         16           0        7.814612   -2.458021   -0.123483
     31          8           0       -8.356918   -2.316308    1.417513
     32          8           0       -8.934889   -2.119662   -1.041760
     33          8           0       -7.178035   -3.789097   -0.271382
     34          8           0        9.018978   -1.972867   -0.817172
     35          8           0        8.129721   -2.502244    1.512915
     36          8           0        7.189695   -3.755431   -0.461099
     37          1           0       -6.348336    2.162130   -0.668682
     38          1           0       -5.042553   -2.629135    0.219269
     39          1           0       -8.023989    0.266639   -0.811362
     40          1           0       -2.322024   -1.038653   -0.775828
     41          1           0       -2.501199   -1.133112    0.984399
     42          1           0       -4.065808    3.406878    1.012698
     43          1           0       -4.400345    3.361862   -0.728734
     44          1           0       -2.327925    4.750014   -0.040473
     45          1           0       -2.029931    3.534596   -1.307625
     46          1           0       -1.584588    3.118226    1.697250
     47          1           0        0.819592    3.157618   -1.241987
     48          1           0       -0.033377   -0.271206    0.219509
     49          1           0        2.446612    3.762466    1.277920
     50          1           0        2.282253    4.808455   -0.148791
     51          1           0        4.483637    3.543154   -0.075980
     52          1           0        3.555000    3.225199   -1.558297
     53          1           0        2.278146   -1.167151   -0.378364
     54          1           0        2.536987   -0.832667    1.341784
     55          1           0        6.321471    2.188977   -0.708228
     56          1           0        8.019568    0.344053   -0.658778
     57          1           0        4.969301   -2.542994    0.327970
     58          1           0        8.251026   -3.448412    1.723030
 ---------------------------------------------------------------------

 The electronic state is 1-A.
 Alpha  occ. eigenvalues --  -89.14927 -89.01809 -19.21099 -19.19686 -19.16647
 Alpha  occ. eigenvalues --  -19.16554 -19.02868 -19.02861 -19.02786 -14.45891
 Alpha  occ. eigenvalues --  -14.44561 -10.30938 -10.30721 -10.29956 -10.29913
 Alpha  occ. eigenvalues --  -10.29528 -10.29477 -10.29222 -10.26990 -10.26519
 Alpha  occ. eigenvalues --  -10.26443 -10.25921 -10.25771 -10.25570 -10.25522
 Alpha  occ. eigenvalues --  -10.25389 -10.25336 -10.25327 -10.24913 -10.24862
 Alpha  occ. eigenvalues --  -10.24534 -10.22299 -10.21603 -10.19736 -10.19411
 Alpha  occ. eigenvalues --  -10.19029  -8.18090  -8.04646  -6.14513  -6.14357
 Alpha  occ. eigenvalues --   -6.14218  -6.00977  -6.00949  -6.00940  -1.15760
 Alpha  occ. eigenvalues --   -1.09455  -1.06071  -1.05979  -1.05248  -1.03047
 Alpha  occ. eigenvalues --   -1.01710  -0.92512  -0.89737  -0.89023  -0.88450
 Alpha  occ. eigenvalues --   -0.88185  -0.87719  -0.86801  -0.85229  -0.82481
 Alpha  occ. eigenvalues --   -0.81558  -0.80063  -0.77601  -0.77026  -0.75013
 Alpha  occ. eigenvalues --   -0.74367  -0.73293  -0.71273  -0.68482  -0.67962
 Alpha  occ. eigenvalues --   -0.66429  -0.65219  -0.64649  -0.62475  -0.61561
 Alpha  occ. eigenvalues --   -0.59892  -0.58671  -0.58003  -0.57672  -0.57091
 Alpha  occ. eigenvalues --   -0.55803  -0.55231  -0.54559  -0.54205  -0.53198
 Alpha  occ. eigenvalues --   -0.52504  -0.52359  -0.51340  -0.50799  -0.50129
 Alpha  occ. eigenvalues --   -0.49639  -0.49238  -0.48694  -0.48371  -0.47749
 Alpha  occ. eigenvalues --   -0.47693  -0.46723  -0.46333  -0.45970  -0.45700
 Alpha  occ. eigenvalues --   -0.45261  -0.44765  -0.44507  -0.44154  -0.43972
 Alpha  occ. eigenvalues --   -0.43288  -0.43019  -0.42290  -0.41532  -0.40624
 Alpha  occ. eigenvalues --   -0.40083  -0.39965  -0.39380  -0.38897  -0.38389
 Alpha  occ. eigenvalues --   -0.38003  -0.36778  -0.36438  -0.36177  -0.35879
 Alpha  occ. eigenvalues --   -0.34826  -0.34777  -0.34123  -0.34094  -0.32044
 Alpha  occ. eigenvalues --   -0.31377  -0.31323  -0.30586  -0.27046  -0.26597
 Alpha  occ. eigenvalues --   -0.23955  -0.23735  -0.23551  -0.20952  -0.20690
 Alpha  occ. eigenvalues --   -0.19715  -0.16576
 Alpha virt. eigenvalues --   -0.13638  -0.07425  -0.07159  -0.04649  -0.02303
 Alpha virt. eigenvalues --   -0.01175  -0.00002   0.00287   0.00860   0.01016
 Alpha virt. eigenvalues --    0.02051   0.03025   0.03942   0.04046   0.04818

 Mulliken atomic charges:
              1
     1  C   -0.018012
     2  C    0.188604
     3  C   -0.135686
     4  C    0.078191
     5  C   -0.253095
     6  C    0.113749
     7  C    0.148792
     8  C    0.092620
     9  N   -0.252491
    10  C    0.091883
    11  C    0.043210
    12  C    0.157047
    13  C   -0.112437
    14  O   -0.319664
    15  C    0.128778
    16  C   -0.097296
    17  C    0.008409
    18  C    0.039050
    19  C    0.095638
    20  N   -0.314479
    21  C    0.081610
    22  C    0.186609
    23  C   -0.155952
    24  C    0.268562
    25  C   -0.010449
    26  C    0.108639
    27  C   -0.252019
    28  C    0.050840
    29  S    0.987491
    30  S    0.994493
    31  O   -0.517107
    32  O   -0.519178
    33  O   -0.525526
    34  O   -0.411007
    35  O   -0.325045
    36  O   -0.437958
    37  H   -0.017866
    38  H   -0.010078
    39  H   -0.003618
    40  H    0.077414
    41  H    0.079902
    42  H    0.059476
    43  H    0.061308
    44  H    0.031213
    45  H    0.023763
    46  H    0.027033
    47  H    0.011254
    48  H   -0.026800
    49  H    0.032546
    50  H    0.026428
    51  H    0.048084
    52  H    0.045223
    53  H    0.078579
    54  H    0.080143
    55  H   -0.010982
    56  H    0.005165
    57  H   -0.015349
    58  H    0.190351
 Sum of Mulliken atomic charges =   0.00000

 Dipole moment (field-independent basis, Debye):
    X=             22.8877    Y=             16.6680    Z=              0.6825  Tot=             28.3220
 Quadrupole moment (field-independent basis, Debye-Ang):
   XX=           -441.0676   YY=           -225.8141   ZZ=           -225.3524
   XY=            -75.3938   XZ=             15.1507   YZ=            -13.7754

 Normal termination of Gaussian 09 at Fri Mar 20 17:19:43 2015.
