 Gaussian 09, Revision B.01,
 Gaussian 09:  EM64L-G09RevB.01 12-Aug-2010

 ------------------------------------------------------
 # opt=modredundant B3LYP/cc-pVDZ Geom=PrintInputOrient
 ------------------------------------------------------

 -------------------------------
 CY3 Dihedral Scan at MP2/6-31G*
 -------------------------------
 Symbolic Z-matrix:
 Charge =  0 Multiplicity = 1

 SCF Done:  E(RB3LYP) =  -2398.26711824     A.U. after   22 cycles
 SCF Done:  E(RB3LYP) =  -2398.26712605     A.U. after    8 cycles
 Optimization completed.
    -- Stationary point found.
 SCF Done:  E(RB3LYP) =  -2398.25749097     A.U. after   17 cycles
 SCF Done:  E(RB3LYP) =  -2398.26324057     A.U. after   14 cycles
 SCF Done:  E(RB3LYP) =  -2398.26398190     A.U. after   13 cycles
 SCF Done:  E(RB3LYP) =  -2398.26422123     A.U. after   12 cycles
 SCF Done:  E(RB3LYP) =  -2398.26425464     A.U. after   11 cycles
 SCF Done:  E(RB3LYP) =  -2398.26426361     A.U. after   11 cycles
 SCF Done:  E(RB3LYP) =  -2398.26426607     A.U. after   10 cycles
 SCF Done:  E(RB3LYP) =  -2398.26426885     A.U. after   11 cycles
 SCF Done:  E(RB3LYP) =  -2398.26428221     A.U. after    7 cycles
 Optimization completed.
    -- Stationary point found.
 SCF Done:  E(RB3LYP) =  -2398.24693128     A.U. after   17 cycles
 SCF Done:  E(RB3LYP) =  -2398.25070089     A.U. after   12 cycles
 SCF Done:  E(RB3LYP) =  -2398.25388160     A.U. after   13 cycles
 SCF Done:  E(RB3LYP) =  -2398.25427640     A.U. after   12 cycles
 SCF Done:  E(RB3LYP) =  -2398.25356417     A.U. after   13 cycles
 SCF Done:  E(RB3LYP) =  -2398.25439164     A.U. after   13 cycles
 SCF Done:  E(RB3LYP) =  -2398.25439994     A.U. after   11 cycles
 SCF Done:  E(RB3LYP) =  -2398.25440124     A.U. after   10 cycles
 SCF Done:  E(RB3LYP) =  -2398.25440193     A.U. after    7 cycles
 Optimization completed.
    -- Stationary point found.

                         Standard orientation:
 ---------------------------------------------------------------------
 Center     Atomic      Atomic             Coordinates (Angstroms)
 Number     Number       Type             X           Y           Z
 ---------------------------------------------------------------------
      1          6           0       -6.034693    1.161004   -0.568902
      2          6           0       -4.745836    0.724188   -0.255708
      3          6           0       -4.461225   -0.599139    0.131965
      4          6           0       -5.486734   -1.525933    0.224675
      5          6           0       -6.794167   -1.102088   -0.063956
      6          6           0       -7.058886    0.217295   -0.467566
      7          6           0       -2.971216   -0.713258    0.359310
      8          6           0       -2.488274    0.683345    0.080011
      9          7           0       -3.528174    1.447596   -0.287429
     10          6           0       -3.427496    2.839503   -0.811338
     11          6           0       -1.984061    3.421613   -0.780859
     12          6           0       -1.326534    2.765923    0.439017
     13          6           0       -1.207812    1.297801    0.073522
     14          8           0       -0.088275    3.348180    0.828274
     15          6           0        1.063505    2.940931    0.087688
     16          6           0        1.209039    1.428034    0.062057
     17          6           0        0.009452    0.667571    0.016316
     18          6           0        2.270868    3.590297    0.760812
     19          6           0        3.580325    3.102555    0.141038
     20          7           0        3.611084    1.641848    0.100437
     21          6           0        2.466893    0.874251    0.060263
     22          6           0        2.877226   -0.586886    0.006291
     23          6           0        4.387018   -0.506938   -0.027129
     24          6           0        4.761579    0.851478    0.026074
     25          6           0        6.096996    1.256236   -0.011634
     26          6           0        7.075448    0.258366   -0.090449
     27          6           0        6.700136   -1.085651   -0.123502
     28          6           0        5.354664   -1.492330   -0.104781
     29         16           0       -8.182858   -2.298912    0.124705
     30         16           0        7.974244   -2.336235   -0.243614
     31          8           0       -8.625071   -2.006182    1.527867
     32          8           0       -9.140383   -1.881923   -0.948884
     33          8           0       -7.510982   -3.625443   -0.070064
     34          8           0        9.226875   -1.702354   -0.687097
     35          8           0        8.117887   -2.713824    1.373965
     36          8           0        7.435489   -3.543698   -0.906839
     37          1           0       -6.240763    2.185400   -0.884984
     38          1           0       -5.331114   -2.572423    0.495030
     39          1           0       -8.089961    0.475336   -0.715375
     40          1           0       -2.484607   -1.437809   -0.316947
     41          1           0       -2.707003   -1.014110    1.387010
     42          1           0       -4.094878    3.451768   -0.185708
     43          1           0       -3.852847    2.826852   -1.826039
     44          1           0       -2.048910    4.515375   -0.680987
     45          1           0       -1.433129    3.178224   -1.699517
     46          1           0       -1.968789    2.884146    1.324712
     47          1           0        0.981074    3.313092   -0.954980
     48          1           0        0.055060   -0.417271   -0.115474
     49          1           0        2.239876    3.334863    1.832030
     50          1           0        2.210483    4.684673    0.676336
     51          1           0        4.434738    3.452205    0.738584
     52          1           0        3.709827    3.497524   -0.883418
     53          1           0        2.461643   -1.086823   -0.884004
     54          1           0        2.507359   -1.137859    0.886681
     55          1           0        6.383090    2.308172    0.005520
     56          1           0        8.133133    0.518243   -0.138089
     57          1           0        5.102169   -2.551890   -0.163926
     58          1           0        8.269395   -3.678504    1.397959
 ---------------------------------------------------------------------

 The electronic state is 1-A.
 Alpha  occ. eigenvalues --  -89.14864 -89.01816 -19.21040 -19.19675 -19.16587
 Alpha  occ. eigenvalues --  -19.16485 -19.02879 -19.02842 -19.02765 -14.46293
 Alpha  occ. eigenvalues --  -14.44339 -10.31238 -10.30523 -10.30022 -10.29865
 Alpha  occ. eigenvalues --  -10.29716 -10.29441 -10.29365 -10.26881 -10.26453
 Alpha  occ. eigenvalues --  -10.26414 -10.25800 -10.25713 -10.25668 -10.25595
 Alpha  occ. eigenvalues --  -10.25484 -10.25279 -10.25218 -10.25091 -10.24887
 Alpha  occ. eigenvalues --  -10.24419 -10.22448 -10.21608 -10.19718 -10.19535
 Alpha  occ. eigenvalues --  -10.19031  -8.18026  -8.04650  -6.14450  -6.14294
 Alpha  occ. eigenvalues --   -6.14154  -6.00982  -6.00953  -6.00944  -1.15690
 Alpha  occ. eigenvalues --   -1.09519  -1.06247  -1.05807  -1.05183  -1.02978
 Alpha  occ. eigenvalues --   -1.01715  -0.92401  -0.89934  -0.88800  -0.88452
 Alpha  occ. eigenvalues --   -0.88191  -0.87612  -0.86726  -0.85338  -0.82442
 Alpha  occ. eigenvalues --   -0.81461  -0.80192  -0.77757  -0.76931  -0.75113
 Alpha  occ. eigenvalues --   -0.74313  -0.73385  -0.71178  -0.68799  -0.67964
 Alpha  occ. eigenvalues --   -0.66317  -0.65171  -0.64599  -0.62405  -0.61640
 Alpha  occ. eigenvalues --   -0.60112  -0.58588  -0.58087  -0.57718  -0.56935
 Alpha  occ. eigenvalues --   -0.55882  -0.55094  -0.54504  -0.54158  -0.53302
 Alpha  occ. eigenvalues --   -0.52482  -0.52219  -0.51049  -0.50854  -0.50207
 Alpha  occ. eigenvalues --   -0.49632  -0.49204  -0.48645  -0.48491  -0.47766
 Alpha  occ. eigenvalues --   -0.47644  -0.46776  -0.46274  -0.45993  -0.45761
 Alpha  occ. eigenvalues --   -0.45531  -0.44893  -0.44754  -0.44242  -0.44069
 Alpha  occ. eigenvalues --   -0.43402  -0.42959  -0.42407  -0.41466  -0.40777
 Alpha  occ. eigenvalues --   -0.40334  -0.40002  -0.39374  -0.38804  -0.38449
 Alpha  occ. eigenvalues --   -0.37887  -0.36920  -0.36441  -0.36136  -0.35917
 Alpha  occ. eigenvalues --   -0.34891  -0.34837  -0.34067  -0.34018  -0.31948
 Alpha  occ. eigenvalues --   -0.31249  -0.31161  -0.30615  -0.27052  -0.26862
 Alpha  occ. eigenvalues --   -0.23971  -0.23744  -0.23587  -0.20969  -0.20693
 Alpha  occ. eigenvalues --   -0.19782  -0.16575
 Alpha virt. eigenvalues --   -0.13465  -0.07490  -0.07050  -0.04826  -0.02283
 Alpha virt. eigenvalues --   -0.00754  -0.00123   0.00247   0.00758   0.00921
 Alpha virt. eigenvalues --    0.01890   0.03217   0.03461   0.03753   0.04547

 Mulliken atomic charges:
              1
     1  C   -0.007770
     2  C    0.229882
     3  C   -0.137474
     4  C    0.040911
     5  C   -0.243072
     6  C    0.112122
     7  C    0.192348
     8  C    0.103221
     9  N   -0.261015
    10  C    0.085696
    11  C    0.068444
    12  C    0.132116
    13  C   -0.133688
    14  O   -0.313396
    15  C    0.113829
    16  C   -0.084615
    17  C    0.006466
    18  C    0.041407
    19  C    0.095492
    20  N   -0.317121
    21  C    0.072885
    22  C    0.184641
    23  C   -0.154039
    24  C    0.269773
    25  C   -0.011946
    26  C    0.108872
    27  C   -0.252547
    28  C    0.049976
    29  S    0.986643
    30  S    0.993664
    31  O   -0.517068
    32  O   -0.520447
    33  O   -0.524862
    34  O   -0.411584
    35  O   -0.324896
    36  O   -0.438488
    37  H   -0.029321
    38  H   -0.023152
    39  H   -0.005761
    40  H    0.083875
    41  H    0.083867
    42  H    0.063416
    43  H    0.063039
    44  H    0.028084
    45  H    0.026720
    46  H    0.022576
    47  H    0.010175
    48  H   -0.032267
    49  H    0.033694
    50  H    0.025936
    51  H    0.047725
    52  H    0.043967
    53  H    0.077499
    54  H    0.078577
    55  H   -0.011641
    56  H    0.004541
    57  H   -0.015986
    58  H    0.190080
 Sum of Mulliken atomic charges =   0.00000

 Dipole moment (field-independent basis, Debye):
    X=             23.5042    Y=             15.1306    Z=             -0.2106  Tot=             27.9540
 Quadrupole moment (field-independent basis, Debye-Ang):
   XX=           -463.1183   YY=           -217.7622   ZZ=           -227.3338
   XY=            -70.8243   XZ=             24.2589   YZ=            -12.5838

 Normal termination of Gaussian 09 at Wed Mar 18 05:29:35 2015.
