 Gaussian 09, Revision B.01,
 Gaussian 09:  EM64L-G09RevB.01 12-Aug-2010

 ------------------------------------------------------
 # opt=modredundant B3LYP/cc-pVDZ Geom=PrintInputOrient
 ------------------------------------------------------

 -------------------------------
 CY3 Dihedral Scan at MP2/6-31G*
 -------------------------------
 Symbolic Z-matrix:
 Charge =  0 Multiplicity = 1

 SCF Done:  E(RB3LYP) =  -2398.26711824     A.U. after   22 cycles
 SCF Done:  E(RB3LYP) =  -2398.26712606     A.U. after    8 cycles
 Optimization completed.
    -- Stationary point found.
 SCF Done:  E(RB3LYP) =  -2398.26258827     A.U. after   19 cycles
 SCF Done:  E(RB3LYP) =  -2398.26469900     A.U. after   13 cycles
 SCF Done:  E(RB3LYP) =  -2398.26494890     A.U. after   12 cycles
 SCF Done:  E(RB3LYP) =  -2398.26498749     A.U. after   11 cycles
 SCF Done:  E(RB3LYP) =  -2398.26499422     A.U. after   11 cycles
 SCF Done:  E(RB3LYP) =  -2398.26499530     A.U. after    9 cycles
 SCF Done:  E(RB3LYP) =  -2398.26499572     A.U. after    8 cycles
 SCF Done:  E(RB3LYP) =  -2398.26499596     A.U. after    8 cycles
 SCF Done:  E(RB3LYP) =  -2398.26499609     A.U. after    7 cycles
 SCF Done:  E(RB3LYP) =  -2398.26499610     A.U. after    6 cycles
 Optimization completed.
    -- Stationary point found.
 SCF Done:  E(RB3LYP) =  -2398.25610288     A.U. after   25 cycles
 SCF Done:  E(RB3LYP) =  -2398.25872888     A.U. after   16 cycles
 SCF Done:  E(RB3LYP) =  -2398.25884002     A.U. after   13 cycles
 SCF Done:  E(RB3LYP) =  -2398.25884778     A.U. after   13 cycles
 SCF Done:  E(RB3LYP) =  -2398.25885748     A.U. after   13 cycles
 SCF Done:  E(RB3LYP) =  -2398.25885920     A.U. after   11 cycles
 SCF Done:  E(RB3LYP) =  -2398.25885952     A.U. after    8 cycles
 SCF Done:  E(RB3LYP) =  -2398.25885960     A.U. after    8 cycles
 Optimization completed.
    -- Stationary point found.

                         Standard orientation:
 ---------------------------------------------------------------------
 Center     Atomic      Atomic             Coordinates (Angstroms)
 Number     Number       Type             X           Y           Z
 ---------------------------------------------------------------------
      1          6           0        5.992670    1.085367    0.254044
      2          6           0        4.677954    0.806866   -0.125154
      3          6           0        4.210989   -0.501422   -0.344190
      4          6           0        5.067412   -1.577322   -0.181586
      5          6           0        6.399652   -1.319190    0.182577
      6          6           0        6.849207   -0.007864    0.405551
      7          6           0        2.746084   -0.420844   -0.702316
      8          6           0        2.471435    1.067143   -0.676436
      9          7           0        3.603538    1.704767   -0.337516
     10          6           0        3.689048    3.158135   -0.166241
     11          6           0        2.323425    3.725036    0.215077
     12          6           0        1.259179    3.263027   -0.788223
     13          6           0        1.262351    1.745112   -0.948432
     14          8           0       -0.029140    3.798757   -0.490514
     15          6           0       -0.867424    2.987373    0.332439
     16          6           0       -1.087197    1.636418   -0.320862
     17          6           0        0.036859    1.082453   -0.968756
     18          6           0       -2.185815    3.736514    0.510097
     19          6           0       -3.237882    2.853478    1.181302
     20          7           0       -3.359488    1.578959    0.473436
     21          6           0       -2.324606    1.030439   -0.243290
     22          6           0       -2.793986   -0.284810   -0.832931
     23          6           0       -4.202918   -0.403106   -0.297474
     24          6           0       -4.479737    0.739061    0.481413
     25          6           0       -5.700148    0.918156    1.134224
     26          6           0       -6.669269   -0.080023    0.980046
     27          6           0       -6.397866   -1.199705    0.191729
     28          6           0       -5.161716   -1.389095   -0.449125
     29         16           0        7.571253   -2.731079    0.337208
     30         16           0       -7.654413   -2.465103    0.025667
     31          8           0        8.125436   -2.802667   -1.055477
     32          8           0        8.533833   -2.265733    1.386581
     33          8           0        6.674499   -3.869521    0.724078
     34          8           0       -8.650936   -2.290565    1.094672
     35          8           0       -8.331622   -1.965784   -1.413353
     36          8           0       -7.019421   -3.773042   -0.244812
     37          1           0        6.347131    2.103943    0.423751
     38          1           0        4.756766   -2.616755   -0.305724
     39          1           0        7.886583    0.126586    0.716788
     40          1           0        2.106652   -0.952829    0.020575
     41          1           0        2.519354   -0.837783   -1.698551
     42          1           0        4.063953    3.601037   -1.105113
     43          1           0        4.432491    3.360734    0.615789
     44          1           0        2.372175    4.823356    0.227401
     45          1           0        2.053268    3.388629    1.230036
     46          1           0        1.502781    3.702608   -1.772392
     47          1           0       -0.385226    2.835995    1.320780
     48          1           0        0.007913    0.028288   -1.265004
     49          1           0       -2.535170    4.047993   -0.487353
     50          1           0       -2.033945    4.645313    1.109495
     51          1           0       -4.217169    3.352580    1.166440
     52          1           0       -2.981702    2.656264    2.238406
     53          1           0       -2.147461   -1.119305   -0.513587
     54          1           0       -2.763736   -0.260667   -1.934717
     55          1           0       -5.901786    1.790980    1.755665
     56          1           0       -7.635357   -0.000200    1.478818
     57          1           0       -4.978700   -2.293867   -1.030267
     58          1           0       -8.533994   -2.788832   -1.898962
 ---------------------------------------------------------------------

 The electronic state is 1-A.
 Alpha  occ. eigenvalues --  -89.15088 -89.01613 -19.21257 -19.19796 -19.16813
 Alpha  occ. eigenvalues --  -19.16712 -19.02678 -19.02652 -19.02592 -14.45322
 Alpha  occ. eigenvalues --  -14.45052 -10.31095 -10.30700 -10.30004 -10.29837
 Alpha  occ. eigenvalues --  -10.29834 -10.29741 -10.28948 -10.27245 -10.26756
 Alpha  occ. eigenvalues --  -10.26678 -10.26186 -10.25986 -10.25789 -10.25610
 Alpha  occ. eigenvalues --  -10.25290 -10.25240 -10.25202 -10.25035 -10.24887
 Alpha  occ. eigenvalues --  -10.24744 -10.21894 -10.21230 -10.19403 -10.19173
 Alpha  occ. eigenvalues --  -10.18697  -8.18250  -8.04448  -6.14674  -6.14518
 Alpha  occ. eigenvalues --   -6.14380  -6.00778  -6.00752  -6.00744  -1.15924
 Alpha  occ. eigenvalues --   -1.09584  -1.06408  -1.05704  -1.05406  -1.03219
 Alpha  occ. eigenvalues --   -1.01507  -0.92771  -0.89550  -0.88979  -0.88247
 Alpha  occ. eigenvalues --   -0.87982  -0.87942  -0.86738  -0.84928  -0.82627
 Alpha  occ. eigenvalues --   -0.81797  -0.79979  -0.77643  -0.76996  -0.74899
 Alpha  occ. eigenvalues --   -0.74355  -0.73240  -0.71362  -0.68574  -0.68044
 Alpha  occ. eigenvalues --   -0.66411  -0.65317  -0.64803  -0.62512  -0.61536
 Alpha  occ. eigenvalues --   -0.60007  -0.58874  -0.57989  -0.57745  -0.57092
 Alpha  occ. eigenvalues --   -0.55817  -0.55000  -0.54583  -0.54257  -0.53365
 Alpha  occ. eigenvalues --   -0.52517  -0.52296  -0.51565  -0.50929  -0.50266
 Alpha  occ. eigenvalues --   -0.49918  -0.49169  -0.48814  -0.48332  -0.47982
 Alpha  occ. eigenvalues --   -0.47590  -0.46966  -0.46358  -0.45940  -0.45705
 Alpha  occ. eigenvalues --   -0.45107  -0.44742  -0.44509  -0.44154  -0.43795
 Alpha  occ. eigenvalues --   -0.43299  -0.43027  -0.42198  -0.41660  -0.40851
 Alpha  occ. eigenvalues --   -0.40112  -0.39865  -0.39506  -0.38933  -0.38206
 Alpha  occ. eigenvalues --   -0.37854  -0.36684  -0.36297  -0.36176  -0.35870
 Alpha  occ. eigenvalues --   -0.34961  -0.34557  -0.34276  -0.34137  -0.32183
 Alpha  occ. eigenvalues --   -0.31631  -0.31568  -0.30580  -0.27141  -0.26514
 Alpha  occ. eigenvalues --   -0.23820  -0.23548  -0.23363  -0.20745  -0.20502
 Alpha  occ. eigenvalues --   -0.19492  -0.16385
 Alpha virt. eigenvalues --   -0.13931  -0.07493  -0.07381  -0.04717  -0.01895
 Alpha virt. eigenvalues --   -0.00558  -0.00140   0.00103   0.00704   0.00860
 Alpha virt. eigenvalues --    0.01751   0.02761   0.03746   0.04008   0.04876

 Mulliken atomic charges:
              1
     1  C   -0.006535
     2  C    0.216517
     3  C   -0.132098
     4  C    0.043569
     5  C   -0.243228
     6  C    0.111170
     7  C    0.175915
     8  C    0.081058
     9  N   -0.261255
    10  C    0.101699
    11  C    0.034067
    12  C    0.152680
    13  C   -0.146843
    14  O   -0.313853
    15  C    0.126583
    16  C   -0.093518
    17  C    0.021871
    18  C    0.039041
    19  C    0.096254
    20  N   -0.309499
    21  C    0.082784
    22  C    0.185512
    23  C   -0.154807
    24  C    0.265337
    25  C   -0.007176
    26  C    0.109489
    27  C   -0.251504
    28  C    0.051540
    29  S    0.985980
    30  S    0.995265
    31  O   -0.516909
    32  O   -0.521068
    33  O   -0.525780
    34  O   -0.409724
    35  O   -0.325134
    36  O   -0.436605
    37  H   -0.026890
    38  H   -0.025745
    39  H   -0.007327
    40  H    0.075533
    41  H    0.080009
    42  H    0.054576
    43  H    0.056442
    44  H    0.031069
    45  H    0.025594
    46  H    0.025597
    47  H    0.011520
    48  H   -0.016457
    49  H    0.035071
    50  H    0.028063
    51  H    0.049329
    52  H    0.047328
    53  H    0.081072
    54  H    0.081029
    55  H   -0.009481
    56  H    0.006130
    57  H   -0.013938
    58  H    0.190683
 Sum of Mulliken atomic charges =   0.00000

 Dipole moment (field-independent basis, Debye):
    X=            -22.7015    Y=             18.2458    Z=             -2.3944  Tot=             29.2233
 Quadrupole moment (field-independent basis, Debye-Ang):
   XX=           -415.0146   YY=           -239.1953   ZZ=           -219.3709
   XY=             79.2183   XZ=             -0.3271   YZ=             19.9568

 Normal termination of Gaussian 09 at Wed Mar 18 09:14:35 2015.
