 Gaussian 09, Revision B.01,
 Gaussian 09:  EM64L-G09RevB.01 12-Aug-2010

 ------------------------------------------------------
 # opt=modredundant B3LYP/cc-pVDZ Geom=PrintInputOrient
 ------------------------------------------------------

 -------------------------------
 CY3 Dihedral Scan at MP2/6-31G*
 -------------------------------
 Symbolic Z-matrix:
 Charge =  0 Multiplicity = 1

 SCF Done:  E(RB3LYP) =  -2398.26711824     A.U. after   22 cycles
 SCF Done:  E(RB3LYP) =  -2398.26712601     A.U. after    8 cycles
 Optimization completed.
    -- Stationary point found.
 SCF Done:  E(RB3LYP) =  -2398.26394993     A.U. after   16 cycles
 SCF Done:  E(RB3LYP) =  -2398.26384819     A.U. after   12 cycles
 SCF Done:  E(RB3LYP) =  -2398.26434215     A.U. after   12 cycles
 SCF Done:  E(RB3LYP) =  -2398.26437861     A.U. after   11 cycles
 SCF Done:  E(RB3LYP) =  -2398.26438399     A.U. after    9 cycles
 SCF Done:  E(RB3LYP) =  -2398.26438596     A.U. after   10 cycles
 SCF Done:  E(RB3LYP) =  -2398.26438633     A.U. after    8 cycles
 SCF Done:  E(RB3LYP) =  -2398.26438663     A.U. after    8 cycles
 Optimization completed on the basis of negligible forces.
    -- Stationary point found.
 SCF Done:  E(RB3LYP) =  -2398.25597577     A.U. after   11 cycles
 SCF Done:  E(RB3LYP) =  -2398.25597718     A.U. after    8 cycles
 SCF Done:  E(RB3LYP) =  -2398.25597769     A.U. after    8 cycles
 SCF Done:  E(RB3LYP) =  -2398.25597769     A.U. after    7 cycles
 SCF Done:  E(RB3LYP) =  -2398.25597784     A.U. after    7 cycles
 SCF Done:  E(RB3LYP) =  -2398.25597788     A.U. after    7 cycles
 SCF Done:  E(RB3LYP) =  -2398.25597780     A.U. after    7 cycles
 SCF Done:  E(RB3LYP) =  -2398.25597775     A.U. after    8 cycles
 SCF Done:  E(RB3LYP) =  -2398.25597803     A.U. after    8 cycles
 SCF Done:  E(RB3LYP) =  -2398.25597803     A.U. after    8 cycles
 Optimization completed.
    -- Stationary point found.

                         Standard orientation:
 ---------------------------------------------------------------------
 Center     Atomic      Atomic             Coordinates (Angstroms)
 Number     Number       Type             X           Y           Z
 ---------------------------------------------------------------------
      1          6           0       -6.117459    1.145937    0.311910
      2          6           0       -4.777942    0.779520    0.151395
      3          6           0       -4.357307   -0.558179    0.296232
      4          6           0       -5.254224   -1.565259   -0.026591
      5          6           0       -6.620714   -1.221016   -0.037024
      6          6           0       -7.042708    0.101705    0.188889
      7          6           0       -2.847046   -0.562795    0.381993
      8          6           0       -2.500510    0.906847    0.335899
      9          7           0       -3.632568    1.612009    0.213079
     10          6           0       -3.687043    3.076258    0.083045
     11          6           0       -2.327663    3.653152   -0.318299
     12          6           0       -1.241283    3.041195    0.575524
     13          6           0       -1.230450    1.534095    0.406607
     14          8           0        0.026254    3.670592    0.438134
     15          6           0        1.029524    3.004957   -0.329921
     16          6           0        1.168863    1.544967    0.062177
     17          6           0       -0.039221    0.845841    0.308360
     18          6           0        2.331589    3.766391   -0.087834
     19          6           0        3.524938    3.047563   -0.715541
     20          7           0        3.552218    1.647616   -0.295067
     21          6           0        2.413303    0.957111    0.051155
     22          6           0        2.803258   -0.472956    0.375875
     23          6           0        4.292369   -0.478663    0.113831
     24          6           0        4.677195    0.816317   -0.289913
     25          6           0        5.994448    1.129281   -0.629241
     26          6           0        6.946939    0.107469   -0.540983
     27          6           0        6.564763   -1.167897   -0.121321
     28          6           0        5.234507   -1.488063    0.200137
     29         16           0       -7.865043   -2.555556   -0.283187
     30         16           0        7.804368   -2.456423   -0.032892
     31          8           0       -8.023469   -3.066149    1.119011
     32          8           0       -9.050820   -1.830682   -0.840938
     33          8           0       -7.158920   -3.488227   -1.221897
     34          8           0        8.982358   -2.038894   -0.810447
     35          8           0        8.178649   -2.347546    1.588061
     36          8           0        7.170956   -3.779380   -0.224109
     37          1           0       -6.440681    2.185715    0.391104
     38          1           0       -4.975337   -2.613020   -0.153126
     39          1           0       -8.117412    0.288703    0.223489
     40          1           0       -2.370698   -1.117627   -0.442592
     41          1           0       -2.477388   -1.006691    1.322574
     42          1           0       -4.024807    3.488578    1.048954
     43          1           0       -4.459276    3.311087   -0.662735
     44          1           0       -2.349753    4.745458   -0.193698
     45          1           0       -2.114893    3.436128   -1.377896
     46          1           0       -1.525546    3.246346    1.625511
     47          1           0        0.760461    3.056538   -1.405747
     48          1           0       -0.037453   -0.247313    0.343853
     49          1           0        2.473114    3.852980    1.001311
     50          1           0        2.259711    4.784264   -0.496741
     51          1           0        4.463248    3.524942   -0.398817
     52          1           0        3.486067    3.092535   -1.819503
     53          1           0        2.259092   -1.190452   -0.260952
     54          1           0        2.560471   -0.724506    1.421236
     55          1           0        6.284395    2.125261   -0.964779
     56          1           0        7.987778    0.291839   -0.807679
     57          1           0        4.971390   -2.505689    0.491845
     58          1           0        8.291953   -3.271153    1.884906
 ---------------------------------------------------------------------

 The electronic state is 1-A.
 Alpha  occ. eigenvalues --  -89.14933 -89.01777 -19.21097 -19.19684 -19.16663
 Alpha  occ. eigenvalues --  -19.16558 -19.02853 -19.02812 -19.02774 -14.45857
 Alpha  occ. eigenvalues --  -14.44574 -10.30925 -10.30734 -10.29976 -10.29910
 Alpha  occ. eigenvalues --  -10.29526 -10.29482 -10.29205 -10.26997 -10.26524
 Alpha  occ. eigenvalues --  -10.26454 -10.25924 -10.25768 -10.25575 -10.25477
 Alpha  occ. eigenvalues --  -10.25390 -10.25342 -10.25305 -10.24909 -10.24831
 Alpha  occ. eigenvalues --  -10.24534 -10.22273 -10.21566 -10.19842 -10.19377
 Alpha  occ. eigenvalues --  -10.18978  -8.18095  -8.04615  -6.14518  -6.14363
 Alpha  occ. eigenvalues --   -6.14223  -6.00945  -6.00918  -6.00909  -1.15768
 Alpha  occ. eigenvalues --   -1.09444  -1.06094  -1.05992  -1.05247  -1.03062
 Alpha  occ. eigenvalues --   -1.01685  -0.92516  -0.89735  -0.89019  -0.88429
 Alpha  occ. eigenvalues --   -0.88154  -0.87718  -0.86799  -0.85210  -0.82482
 Alpha  occ. eigenvalues --   -0.81559  -0.80056  -0.77597  -0.77019  -0.74998
 Alpha  occ. eigenvalues --   -0.74363  -0.73273  -0.71272  -0.68477  -0.67961
 Alpha  occ. eigenvalues --   -0.66426  -0.65216  -0.64664  -0.62464  -0.61553
 Alpha  occ. eigenvalues --   -0.59924  -0.58681  -0.58005  -0.57662  -0.57083
 Alpha  occ. eigenvalues --   -0.56017  -0.54942  -0.54455  -0.54121  -0.53204
 Alpha  occ. eigenvalues --   -0.52534  -0.52432  -0.51300  -0.50858  -0.50107
 Alpha  occ. eigenvalues --   -0.49709  -0.49170  -0.48708  -0.48360  -0.47755
 Alpha  occ. eigenvalues --   -0.47728  -0.46726  -0.46340  -0.45937  -0.45710
 Alpha  occ. eigenvalues --   -0.45051  -0.44784  -0.44547  -0.44282  -0.44015
 Alpha  occ. eigenvalues --   -0.43220  -0.43001  -0.42232  -0.41564  -0.40639
 Alpha  occ. eigenvalues --   -0.40041  -0.39954  -0.39368  -0.38847  -0.38274
 Alpha  occ. eigenvalues --   -0.38056  -0.36804  -0.36389  -0.36168  -0.35938
 Alpha  occ. eigenvalues --   -0.34917  -0.34708  -0.34135  -0.34094  -0.32072
 Alpha  occ. eigenvalues --   -0.31376  -0.31326  -0.30579  -0.27026  -0.26558
 Alpha  occ. eigenvalues --   -0.23974  -0.23716  -0.23534  -0.20910  -0.20656
 Alpha  occ. eigenvalues --   -0.19669  -0.16556
 Alpha virt. eigenvalues --   -0.13632  -0.07427  -0.07160  -0.04643  -0.02389
 Alpha virt. eigenvalues --   -0.01040   0.00014   0.00280   0.00866   0.01009
 Alpha virt. eigenvalues --    0.02154   0.03042   0.03882   0.03975   0.04952

 Mulliken atomic charges:
              1
     1  C   -0.005342
     2  C    0.182334
     3  C   -0.131040
     4  C    0.079454
     5  C   -0.248120
     6  C    0.107933
     7  C    0.145845
     8  C    0.091941
     9  N   -0.251023
    10  C    0.088682
    11  C    0.050017
    12  C    0.156912
    13  C   -0.115501
    14  O   -0.320347
    15  C    0.129740
    16  C   -0.099013
    17  C    0.010317
    18  C    0.038640
    19  C    0.095695
    20  N   -0.314392
    21  C    0.082293
    22  C    0.186379
    23  C   -0.155597
    24  C    0.268211
    25  C   -0.010344
    26  C    0.109061
    27  C   -0.251959
    28  C    0.050159
    29  S    0.985739
    30  S    0.994893
    31  O   -0.516758
    32  O   -0.520262
    33  O   -0.526070
    34  O   -0.410563
    35  O   -0.325196
    36  O   -0.438140
    37  H   -0.021620
    38  H   -0.010775
    39  H   -0.003776
    40  H    0.079294
    41  H    0.077197
    42  H    0.057321
    43  H    0.059463
    44  H    0.031035
    45  H    0.025323
    46  H    0.025724
    47  H    0.012240
    48  H   -0.026731
    49  H    0.031998
    50  H    0.026584
    51  H    0.047973
    52  H    0.045838
    53  H    0.079455
    54  H    0.079419
    55  H   -0.010803
    56  H    0.005143
    57  H   -0.015199
    58  H    0.190320
 Sum of Mulliken atomic charges =   0.00000

 Dipole moment (field-independent basis, Debye):
    X=             22.6102    Y=             16.9996    Z=              2.4102  Tot=             28.3904
 Quadrupole moment (field-independent basis, Debye-Ang):
   XX=           -435.5914   YY=           -228.9397   ZZ=           -224.1572
   XY=            -75.9332   XZ=             -0.4419   YZ=            -16.3648

 Normal termination of Gaussian 09 at Fri Mar 20 20:47:04 2015.
