 Gaussian 09, Revision B.01,
 Gaussian 09:  EM64L-G09RevB.01 12-Aug-2010

 ------------------------------------------------------
 # opt=modredundant B3LYP/cc-pVDZ Geom=PrintInputOrient
 ------------------------------------------------------

 -------------------------------
 CY3 Dihedral Scan at MP2/6-31G*
 -------------------------------
 Symbolic Z-matrix:
 Charge =  0 Multiplicity = 1

 SCF Done:  E(RB3LYP) =  -2398.26711824     A.U. after   22 cycles
 SCF Done:  E(RB3LYP) =  -2398.26712600     A.U. after    8 cycles
 Optimization completed.
    -- Stationary point found.
 SCF Done:  E(RB3LYP) =  -2398.26400862     A.U. after   13 cycles
 SCF Done:  E(RB3LYP) =  -2398.26289809     A.U. after   13 cycles
 SCF Done:  E(RB3LYP) =  -2398.26428238     A.U. after   13 cycles
 SCF Done:  E(RB3LYP) =  -2398.26430168     A.U. after   11 cycles
 SCF Done:  E(RB3LYP) =  -2398.26430760     A.U. after   11 cycles
 SCF Done:  E(RB3LYP) =  -2398.26430978     A.U. after   11 cycles
 SCF Done:  E(RB3LYP) =  -2398.26431086     A.U. after    8 cycles
 SCF Done:  E(RB3LYP) =  -2398.26431216     A.U. after    8 cycles
 SCF Done:  E(RB3LYP) =  -2398.26432651     A.U. after    7 cycles
 Optimization completed.
    -- Stationary point found.
 SCF Done:  E(RB3LYP) =  -2398.25493988     A.U. after   13 cycles
 SCF Done:  E(RB3LYP) =  -2398.25476966     A.U. after   12 cycles
 SCF Done:  E(RB3LYP) =  -2398.25494552     A.U. after   12 cycles
 SCF Done:  E(RB3LYP) =  -2398.25555009     A.U. after   12 cycles
 SCF Done:  E(RB3LYP) =  -2398.25556000     A.U. after   11 cycles
 SCF Done:  E(RB3LYP) =  -2398.25556152     A.U. after   10 cycles
 SCF Done:  E(RB3LYP) =  -2398.25556174     A.U. after    8 cycles
 SCF Done:  E(RB3LYP) =  -2398.25556177     A.U. after    7 cycles
 SCF Done:  E(RB3LYP) =  -2398.25556178     A.U. after    7 cycles
 Optimization completed.
    -- Stationary point found.

                         Standard orientation:
 ---------------------------------------------------------------------
 Center     Atomic      Atomic             Coordinates (Angstroms)
 Number     Number       Type             X           Y           Z
 ---------------------------------------------------------------------
      1          6           0       -6.115285    1.176317   -0.015925
      2          6           0       -4.775508    0.795088    0.083543
      3          6           0       -4.363482   -0.549502    0.081711
      4          6           0       -5.304857   -1.559879   -0.023020
      5          6           0       -6.660381   -1.200205   -0.104404
      6          6           0       -7.055130    0.147797   -0.112602
      7          6           0       -2.856616   -0.575949    0.181684
      8          6           0       -2.498319    0.889770    0.260562
      9          7           0       -3.623576    1.613064    0.182816
     10          6           0       -3.663674    3.083399    0.157878
     11          6           0       -2.294628    3.675068   -0.184894
     12          6           0       -1.221589    2.987329    0.668528
     13          6           0       -1.223351    1.497635    0.385712
     14          8           0        0.052822    3.612819    0.587093
     15          6           0        1.053295    2.996910   -0.224670
     16          6           0        1.178042    1.510607    0.058871
     17          6           0       -0.037747    0.806580    0.244398
     18          6           0        2.361006    3.727546    0.074918
     19          6           0        3.548947    3.043760   -0.600173
     20          7           0        3.564044    1.618638   -0.275031
     21          6           0        2.417777    0.913812    0.012041
     22          6           0        2.793051   -0.541529    0.222003
     23          6           0        4.287450   -0.537366   -0.009801
     24          6           0        4.680733    0.779249   -0.337299
     25          6           0        5.990223    1.094821   -0.721165
     26          6           0        6.887749    0.021941   -0.791708
     27          6           0        6.577674   -1.153136   -0.098125
     28          6           0        5.238170   -1.543529    0.087725
     29         16           0       -7.934148   -2.529607   -0.160737
     30         16           0        7.846797   -2.419018    0.031598
     31          8           0       -8.250172   -2.685018    1.297757
     32          8           0       -9.024040   -1.925093   -0.991549
     33          8           0       -7.194368   -3.678616   -0.778455
     34          8           0        8.935734   -2.104875   -0.906156
     35          8           0        8.406595   -2.094904    1.566039
     36          8           0        7.217633   -3.757516    0.098372
     37          1           0       -6.424756    2.223279   -0.019219
     38          1           0       -5.048594   -2.620771   -0.057850
     39          1           0       -8.120164    0.364299   -0.212039
     40          1           0       -2.381996   -1.051922   -0.692485
     41          1           0       -2.491854   -1.110823    1.074775
     42          1           0       -4.013412    3.428371    1.145568
     43          1           0       -4.421366    3.379971   -0.580608
     44          1           0       -2.308491    4.755052    0.021486
     45          1           0       -2.073104    3.536586   -1.255843
     46          1           0       -1.511753    3.115561    1.728992
     47          1           0        0.788344    3.129215   -1.294674
     48          1           0       -0.046265   -0.286230    0.200033
     49          1           0        2.500567    3.735225    1.167705
     50          1           0        2.299224    4.772498   -0.260742
     51          1           0        4.491636    3.489813   -0.252106
     52          1           0        3.509829    3.163825   -1.698669
     53          1           0        2.257447   -1.194615   -0.488030
     54          1           0        2.524971   -0.882701    1.234891
     55          1           0        6.259624    2.078033   -1.107732
     56          1           0        7.907152    0.173698   -1.149940
     57          1           0        4.993920   -2.560827    0.395652
     58          1           0        8.308429   -2.935020    2.053037
 ---------------------------------------------------------------------

 The electronic state is 1-A.
 Alpha  occ. eigenvalues --  -89.14988 -89.01755 -19.21178 -19.19711 -19.16858
 Alpha  occ. eigenvalues --  -19.16662 -19.02819 -19.02789 -19.02721 -14.45943
 Alpha  occ. eigenvalues --  -14.44606 -10.30977 -10.30757 -10.29995 -10.29944
 Alpha  occ. eigenvalues --  -10.29562 -10.29517 -10.29258 -10.27004 -10.26649
 Alpha  occ. eigenvalues --  -10.26477 -10.25924 -10.25873 -10.25693 -10.25468
 Alpha  occ. eigenvalues --  -10.25443 -10.25413 -10.25358 -10.24942 -10.24878
 Alpha  occ. eigenvalues --  -10.24566 -10.22202 -10.21473 -10.19597 -10.19395
 Alpha  occ. eigenvalues --  -10.18922  -8.18149  -8.04589  -6.14571  -6.14427
 Alpha  occ. eigenvalues --   -6.14268  -6.00920  -6.00892  -6.00884  -1.15912
 Alpha  occ. eigenvalues --   -1.09474  -1.06143  -1.06022  -1.05334  -1.03248
 Alpha  occ. eigenvalues --   -1.01654  -0.92609  -0.89731  -0.89030  -0.88393
 Alpha  occ. eigenvalues --   -0.88127  -0.87752  -0.86820  -0.85203  -0.82487
 Alpha  occ. eigenvalues --   -0.81485  -0.80085  -0.77630  -0.77067  -0.74992
 Alpha  occ. eigenvalues --   -0.74344  -0.73286  -0.71243  -0.68482  -0.67972
 Alpha  occ. eigenvalues --   -0.66423  -0.65210  -0.64781  -0.62506  -0.61638
 Alpha  occ. eigenvalues --   -0.59935  -0.58729  -0.58055  -0.57733  -0.57121
 Alpha  occ. eigenvalues --   -0.55931  -0.55087  -0.54423  -0.54111  -0.53218
 Alpha  occ. eigenvalues --   -0.52459  -0.52435  -0.51272  -0.50840  -0.50251
 Alpha  occ. eigenvalues --   -0.49695  -0.49384  -0.48959  -0.48446  -0.47773
 Alpha  occ. eigenvalues --   -0.47632  -0.46736  -0.46226  -0.45903  -0.45626
 Alpha  occ. eigenvalues --   -0.45201  -0.44988  -0.44682  -0.44405  -0.43962
 Alpha  occ. eigenvalues --   -0.43263  -0.42894  -0.42347  -0.41642  -0.40710
 Alpha  occ. eigenvalues --   -0.40099  -0.39992  -0.39353  -0.38608  -0.38349
 Alpha  occ. eigenvalues --   -0.38050  -0.36822  -0.36349  -0.36091  -0.35907
 Alpha  occ. eigenvalues --   -0.34947  -0.34740  -0.34311  -0.34205  -0.32521
 Alpha  occ. eigenvalues --   -0.31314  -0.31152  -0.30452  -0.27066  -0.26730
 Alpha  occ. eigenvalues --   -0.23939  -0.23686  -0.23512  -0.20899  -0.20637
 Alpha  occ. eigenvalues --   -0.19682  -0.16520
 Alpha virt. eigenvalues --   -0.13675  -0.07868  -0.07312  -0.04733  -0.02102
 Alpha virt. eigenvalues --   -0.00563   0.00007   0.00299   0.00837   0.00945
 Alpha virt. eigenvalues --    0.02090   0.02891   0.03798   0.03995   0.04834

 Mulliken atomic charges:
              1
     1  C   -0.009797
     2  C    0.223381
     3  C   -0.130453
     4  C    0.041626
     5  C   -0.243239
     6  C    0.112014
     7  C    0.178889
     8  C    0.080797
     9  N   -0.265767
    10  C    0.088592
    11  C    0.047545
    12  C    0.157098
    13  C   -0.117778
    14  O   -0.320058
    15  C    0.128982
    16  C   -0.095845
    17  C    0.009176
    18  C    0.040113
    19  C    0.093796
    20  N   -0.309998
    21  C    0.081299
    22  C    0.183103
    23  C   -0.162046
    24  C    0.259333
    25  C   -0.019111
    26  C    0.104052
    27  C   -0.267755
    28  C    0.051440
    29  S    0.986332
    30  S    0.998354
    31  O   -0.517031
    32  O   -0.520314
    33  O   -0.524968
    34  O   -0.407319
    35  O   -0.320177
    36  O   -0.439791
    37  H   -0.027921
    38  H   -0.024783
    39  H   -0.006347
    40  H    0.081402
    41  H    0.081417
    42  H    0.058189
    43  H    0.061013
    44  H    0.031186
    45  H    0.024471
    46  H    0.026476
    47  H    0.011623
    48  H   -0.026006
    49  H    0.032503
    50  H    0.026553
    51  H    0.048542
    52  H    0.045083
    53  H    0.079281
    54  H    0.077898
    55  H   -0.004698
    56  H    0.021346
    57  H   -0.000955
    58  H    0.189251
 Sum of Mulliken atomic charges =   0.00000

 Dipole moment (field-independent basis, Debye):
    X=             22.8379    Y=             17.0557    Z=              1.4303  Tot=             28.5396
 Quadrupole moment (field-independent basis, Debye-Ang):
   XX=           -444.1395   YY=           -229.9961   ZZ=           -222.8289
   XY=            -73.8120   XZ=              4.9678   YZ=            -13.9811

 Normal termination of Gaussian 09 at Sun Mar 22 01:02:55 2015.
