 Gaussian 09, Revision B.01,
 Gaussian 09:  EM64L-G09RevB.01 12-Aug-2010

 ------------------------------------------------------
 # opt=modredundant B3LYP/cc-pVDZ Geom=PrintInputOrient
 ------------------------------------------------------

 -------------------------------
 CY3 Dihedral Scan at MP2/6-31G*
 -------------------------------
 Symbolic Z-matrix:
 Charge =  0 Multiplicity = 1

 SCF Done:  E(RB3LYP) =  -2398.26711824     A.U. after   22 cycles
 SCF Done:  E(RB3LYP) =  -2398.26712607     A.U. after    8 cycles
 Optimization completed.
    -- Stationary point found.
 SCF Done:  E(RB3LYP) =  -2398.26434570     A.U. after   15 cycles
 SCF Done:  E(RB3LYP) =  -2398.26433554     A.U. after   12 cycles
 SCF Done:  E(RB3LYP) =  -2398.26488200     A.U. after   13 cycles
 SCF Done:  E(RB3LYP) =  -2398.26493500     A.U. after   11 cycles
 SCF Done:  E(RB3LYP) =  -2398.26494358     A.U. after   10 cycles
 SCF Done:  E(RB3LYP) =  -2398.26494555     A.U. after   10 cycles
 SCF Done:  E(RB3LYP) =  -2398.26494606     A.U. after    8 cycles
 SCF Done:  E(RB3LYP) =  -2398.26494621     A.U. after    7 cycles
 SCF Done:  E(RB3LYP) =  -2398.26494663     A.U. after    7 cycles
 Optimization completed.
    -- Stationary point found.
 SCF Done:  E(RB3LYP) =  -2398.25695910     A.U. after   14 cycles
 SCF Done:  E(RB3LYP) =  -2398.25825086     A.U. after   13 cycles
 SCF Done:  E(RB3LYP) =  -2398.25829834     A.U. after   12 cycles
 SCF Done:  E(RB3LYP) =  -2398.25830551     A.U. after   11 cycles
 SCF Done:  E(RB3LYP) =  -2398.25830732     A.U. after   10 cycles
 SCF Done:  E(RB3LYP) =  -2398.25830787     A.U. after    8 cycles
 SCF Done:  E(RB3LYP) =  -2398.25830811     A.U. after    8 cycles
 SCF Done:  E(RB3LYP) =  -2398.25830806     A.U. after    7 cycles
 SCF Done:  E(RB3LYP) =  -2398.25830807     A.U. after    6 cycles
 Optimization completed.
    -- Stationary point found.

                         Standard orientation:
 ---------------------------------------------------------------------
 Center     Atomic      Atomic             Coordinates (Angstroms)
 Number     Number       Type             X           Y           Z
 ---------------------------------------------------------------------
      1          6           0       -6.023051    1.112336   -0.286228
      2          6           0       -4.807527    0.853689    0.360287
      3          6           0       -4.376521   -0.474559    0.576085
      4          6           0       -5.244903   -1.535420    0.382736
      5          6           0       -6.535415   -1.263340   -0.099348
      6          6           0       -6.898767    0.040890   -0.468336
      7          6           0       -2.874851   -0.466800    0.743481
      8          6           0       -2.521848    0.986588    0.533305
      9          7           0       -3.656239    1.689671    0.440030
     10          6           0       -3.702382    3.146869    0.230213
     11          6           0       -2.354655    3.694133   -0.245308
     12          6           0       -1.239731    3.120538    0.637395
     13          6           0       -1.246357    1.608220    0.542768
     14          8           0        0.026325    3.731211    0.422624
     15          6           0        0.993519    3.022030   -0.352497
     16          6           0        1.136222    1.579479    0.098934
     17          6           0       -0.066078    0.904249    0.425866
     18          6           0        2.310129    3.780730   -0.194675
     19          6           0        3.473521    3.023183   -0.833049
     20          7           0        3.504446    1.642393   -0.353276
     21          6           0        2.374400    0.979126    0.065612
     22          6           0        2.764720   -0.439008    0.438842
     23          6           0        4.243671   -0.469544    0.126166
     24          6           0        4.623215    0.802186   -0.349435
     25          6           0        5.929784    1.088388   -0.748172
     26          6           0        6.877609    0.063575   -0.646513
     27          6           0        6.501637   -1.187958   -0.155274
     28          6           0        5.181378   -1.481991    0.226307
     29         16           0       -7.722556   -2.652974   -0.320168
     30         16           0        7.735571   -2.481017   -0.050066
     31          8           0       -8.372204   -2.691835    1.031163
     32          8           0       -8.596986   -2.184760   -1.442593
     33          8           0       -6.823167   -3.813278   -0.627845
     34          8           0        8.877477   -2.119449   -0.905337
     35          8           0        8.189879   -2.283019    1.541683
     36          8           0        7.084240   -3.806463   -0.133347
     37          1           0       -6.318628    2.121549   -0.581863
     38          1           0       -4.951343   -2.579178    0.513494
     39          1           0       -7.871002    0.180138   -0.944330
     40          1           0       -2.383504   -1.124888    0.009880
     41          1           0       -2.527700   -0.783961    1.743076
     42          1           0       -4.008209    3.611573    1.182487
     43          1           0       -4.491775    3.354161   -0.504191
     44          1           0       -2.367975    4.791438   -0.174289
     45          1           0       -2.180442    3.423752   -1.299734
     46          1           0       -1.483071    3.380267    1.685613
     47          1           0        0.683354    3.027571   -1.418422
     48          1           0       -0.071957   -0.186268    0.508571
     49          1           0        2.493246    3.915172    0.883361
     50          1           0        2.230981    4.779791   -0.646418
     51          1           0        4.426749    3.504300   -0.571224
     52          1           0        3.395257    3.020686   -1.935808
     53          1           0        2.193469   -1.178046   -0.147713
     54          1           0        2.555998   -0.643301    1.501613
     55          1           0        6.214485    2.065590   -1.138826
     56          1           0        7.909507    0.226746   -0.957981
     57          1           0        4.921678   -2.483046    0.573209
     58          1           0        8.294391   -3.189411    1.890208
 ---------------------------------------------------------------------

 The electronic state is 1-A.
 Alpha  occ. eigenvalues --  -89.14955 -89.01790 -19.21110 -19.19714 -19.16695
 Alpha  occ. eigenvalues --  -19.16574 -19.02841 -19.02818 -19.02752 -14.45901
 Alpha  occ. eigenvalues --  -14.44632 -10.31061 -10.30810 -10.29993 -10.29947
 Alpha  occ. eigenvalues --  -10.29563 -10.29514 -10.29147 -10.27035 -10.26559
 Alpha  occ. eigenvalues --  -10.26555 -10.25957 -10.25793 -10.25603 -10.25499
 Alpha  occ. eigenvalues --  -10.25432 -10.25378 -10.25301 -10.24944 -10.24830
 Alpha  occ. eigenvalues --  -10.24577 -10.22196 -10.21605 -10.19531 -10.19294
 Alpha  occ. eigenvalues --  -10.18978  -8.18116  -8.04623  -6.14540  -6.14385
 Alpha  occ. eigenvalues --   -6.14244  -6.00954  -6.00926  -6.00917  -1.15792
 Alpha  occ. eigenvalues --   -1.09476  -1.06083  -1.05975  -1.05262  -1.03093
 Alpha  occ. eigenvalues --   -1.01687  -0.92550  -0.89719  -0.89000  -0.88415
 Alpha  occ. eigenvalues --   -0.88170  -0.87741  -0.86810  -0.85162  -0.82502
 Alpha  occ. eigenvalues --   -0.81596  -0.80029  -0.77637  -0.77079  -0.74970
 Alpha  occ. eigenvalues --   -0.74389  -0.73267  -0.71304  -0.68490  -0.67990
 Alpha  occ. eigenvalues --   -0.66469  -0.65255  -0.64709  -0.62521  -0.61528
 Alpha  occ. eigenvalues --   -0.59927  -0.58714  -0.58028  -0.57722  -0.57120
 Alpha  occ. eigenvalues --   -0.55843  -0.55026  -0.54553  -0.54203  -0.53229
 Alpha  occ. eigenvalues --   -0.52552  -0.52398  -0.51355  -0.50882  -0.50145
 Alpha  occ. eigenvalues --   -0.49692  -0.49252  -0.48762  -0.48425  -0.47771
 Alpha  occ. eigenvalues --   -0.47645  -0.46747  -0.46362  -0.45892  -0.45728
 Alpha  occ. eigenvalues --   -0.45246  -0.44758  -0.44574  -0.44273  -0.43820
 Alpha  occ. eigenvalues --   -0.43233  -0.43000  -0.42292  -0.41609  -0.40657
 Alpha  occ. eigenvalues --   -0.40013  -0.39965  -0.39367  -0.38825  -0.38364
 Alpha  occ. eigenvalues --   -0.38016  -0.36799  -0.36363  -0.36180  -0.35967
 Alpha  occ. eigenvalues --   -0.34818  -0.34621  -0.34165  -0.34104  -0.32113
 Alpha  occ. eigenvalues --   -0.31405  -0.31361  -0.30602  -0.27126  -0.26529
 Alpha  occ. eigenvalues --   -0.23959  -0.23699  -0.23607  -0.20915  -0.20693
 Alpha  occ. eigenvalues --   -0.19781  -0.16546
 Alpha virt. eigenvalues --   -0.13644  -0.07449  -0.07185  -0.04644  -0.02106
 Alpha virt. eigenvalues --   -0.01318  -0.00029   0.00256   0.00842   0.01005
 Alpha virt. eigenvalues --    0.02041   0.03005   0.03851   0.03997   0.04784

 Mulliken atomic charges:
              1
     1  C    0.003009
     2  C    0.160706
     3  C   -0.126633
     4  C    0.064398
     5  C   -0.243468
     6  C    0.105540
     7  C    0.147376
     8  C    0.098823
     9  N   -0.253886
    10  C    0.098816
    11  C    0.038156
    12  C    0.159792
    13  C   -0.107061
    14  O   -0.320135
    15  C    0.130408
    16  C   -0.101940
    17  C    0.015224
    18  C    0.038386
    19  C    0.095636
    20  N   -0.314284
    21  C    0.084260
    22  C    0.186065
    23  C   -0.155182
    24  C    0.267953
    25  C   -0.010138
    26  C    0.109588
    27  C   -0.251799
    28  C    0.049352
    29  S    0.988528
    30  S    0.995315
    31  O   -0.515377
    32  O   -0.520877
    33  O   -0.525743
    34  O   -0.410124
    35  O   -0.325177
    36  O   -0.438102
    37  H   -0.017964
    38  H   -0.021863
    39  H   -0.004880
    40  H    0.080017
    41  H    0.078484
    42  H    0.057543
    43  H    0.059821
    44  H    0.030531
    45  H    0.025311
    46  H    0.025267
    47  H    0.012795
    48  H   -0.025870
    49  H    0.031965
    50  H    0.026813
    51  H    0.048141
    52  H    0.046339
    53  H    0.080440
    54  H    0.079325
    55  H   -0.010598
    56  H    0.005245
    57  H   -0.014682
    58  H    0.190416
 Sum of Mulliken atomic charges =   0.00000

 Dipole moment (field-independent basis, Debye):
    X=             22.3658    Y=             17.5779    Z=              2.4865  Tot=             28.5552
 Quadrupole moment (field-independent basis, Debye-Ang):
   XX=           -427.7903   YY=           -232.4804   ZZ=           -222.4952
   XY=            -77.1600   XZ=              1.3740   YZ=            -18.6706

 Normal termination of Gaussian 09 at Sun Mar 22 02:29:38 2015.
