 Gaussian 09, Revision B.01,
 Gaussian 09:  EM64L-G09RevB.01 12-Aug-2010

 ------------------------------------------------------
 # opt=modredundant B3LYP/cc-pVDZ Geom=PrintInputOrient
 ------------------------------------------------------

 -------------------------------
 CY3 Dihedral Scan at MP2/6-31G*
 -------------------------------
 Symbolic Z-matrix:
 Charge =  0 Multiplicity = 1

 SCF Done:  E(RB3LYP) =  -2398.26711824     A.U. after   22 cycles
 SCF Done:  E(RB3LYP) =  -2398.26712598     A.U. after    8 cycles
 Optimization completed.
    -- Stationary point found.
 SCF Done:  E(RB3LYP) =  -2398.26403696     A.U. after   13 cycles
 SCF Done:  E(RB3LYP) =  -2398.25994036     A.U. after   14 cycles
 SCF Done:  E(RB3LYP) =  -2398.26404149     A.U. after   14 cycles
 SCF Done:  E(RB3LYP) =  -2398.26417696     A.U. after   11 cycles
 SCF Done:  E(RB3LYP) =  -2398.26418607     A.U. after   10 cycles
 SCF Done:  E(RB3LYP) =  -2398.26418788     A.U. after    8 cycles
 SCF Done:  E(RB3LYP) =  -2398.26418841     A.U. after    7 cycles
 SCF Done:  E(RB3LYP) =  -2398.26418864     A.U. after    7 cycles
 SCF Done:  E(RB3LYP) =  -2398.26419004     A.U. after    9 cycles
 SCF Done:  E(RB3LYP) =  -2398.26419035     A.U. after    8 cycles
 SCF Done:  E(RB3LYP) =  -2398.26419043     A.U. after    7 cycles
 SCF Done:  E(RB3LYP) =  -2398.26419044     A.U. after    7 cycles
 Optimization completed.
    -- Stationary point found.
 SCF Done:  E(RB3LYP) =  -2398.25459084     A.U. after   12 cycles
 SCF Done:  E(RB3LYP) =  -2398.25442553     A.U. after   11 cycles
 SCF Done:  E(RB3LYP) =  -2398.25498939     A.U. after   12 cycles
 SCF Done:  E(RB3LYP) =  -2398.25499401     A.U. after    9 cycles
 SCF Done:  E(RB3LYP) =  -2398.25499436     A.U. after    8 cycles
 SCF Done:  E(RB3LYP) =  -2398.25499422     A.U. after    7 cycles
 Optimization completed.
    -- Stationary point found.

                         Standard orientation:
 ---------------------------------------------------------------------
 Center     Atomic      Atomic             Coordinates (Angstroms)
 Number     Number       Type             X           Y           Z
 ---------------------------------------------------------------------
      1          6           0       -6.109683    1.167676   -0.039074
      2          6           0       -4.768666    0.793596    0.070718
      3          6           0       -4.350625   -0.549139    0.088096
      4          6           0       -5.287024   -1.564890   -0.007950
      5          6           0       -6.643769   -1.212191   -0.099823
      6          6           0       -7.044527    0.133848   -0.126528
      7          6           0       -2.844170   -0.567400    0.195077
      8          6           0       -2.492823    0.900755    0.255646
      9          7           0       -3.620783    1.617799    0.163766
     10          6           0       -3.667292    3.087604    0.119046
     11          6           0       -2.299941    3.680639   -0.227888
     12          6           0       -1.226426    3.009784    0.638211
     13          6           0       -1.220678    1.516156    0.376735
     14          8           0        0.045368    3.639553    0.551285
     15          6           0        1.050304    3.017090   -0.249970
     16          6           0        1.181785    1.535744    0.056885
     17          6           0       -0.031891    0.828656    0.249349
     18          6           0        2.353589    3.759143    0.040623
     19          6           0        3.545757    3.070189   -0.621796
     20          7           0        3.567741    1.650620   -0.273525
     21          6           0        2.423597    0.943981    0.023678
     22          6           0        2.807525   -0.502687    0.275784
     23          6           0        4.301940   -0.496528    0.042432
     24          6           0        4.694916    0.827279   -0.268126
     25          6           0        6.000487    1.105020   -0.679249
     26          6           0        6.971227    0.160626   -0.310440
     27          6           0        6.585330   -1.173948   -0.169250
     28          6           0        5.232008   -1.522169    0.021413
     29         16           0       -7.911239   -2.547887   -0.145659
     30         16           0        7.836717   -2.442025   -0.035057
     31          8           0       -8.225620   -2.693778    1.314202
     32          8           0       -9.004397   -1.954941   -0.980445
     33          8           0       -7.166124   -3.697937   -0.754850
     34          8           0        9.124590   -1.888968   -0.485839
     35          8           0        7.879297   -2.601108    1.625187
     36          8           0        7.308222   -3.717557   -0.564216
     37          1           0       -6.423674    2.213136   -0.056887
     38          1           0       -5.025810   -2.624942   -0.028469
     39          1           0       -8.110145    0.344001   -0.233089
     40          1           0       -2.363330   -1.053046   -0.670321
     41          1           0       -2.481176   -1.088425    1.097047
     42          1           0       -4.021204    3.444015    1.101154
     43          1           0       -4.424279    3.370765   -0.625355
     44          1           0       -2.319240    4.763285   -0.036506
     45          1           0       -2.074609    3.528418   -1.296177
     46          1           0       -1.520258    3.151652    1.695929
     47          1           0        0.786214    3.131835   -1.322165
     48          1           0       -0.035056   -0.264663    0.219921
     49          1           0        2.491127    3.784702    1.133405
     50          1           0        2.287003    4.798267   -0.311777
     51          1           0        4.487458    3.524744   -0.282069
     52          1           0        3.506147    3.171626   -1.721893
     53          1           0        2.276199   -1.182665   -0.411173
     54          1           0        2.542391   -0.811175    1.300319
     55          1           0        6.303291    2.109418   -0.980979
     56          1           0        8.032466    0.389346   -0.422433
     57          1           0        4.946446   -2.565881    0.160434
     58          1           0        8.047283   -3.549888    1.786673
 ---------------------------------------------------------------------

 The electronic state is 1-A.
 Alpha  occ. eigenvalues --  -89.14876 -89.01804 -19.21069 -19.19755 -19.16564
 Alpha  occ. eigenvalues --  -19.16493 -19.02868 -19.02840 -19.02776 -14.46028
 Alpha  occ. eigenvalues --  -14.44659 -10.31042 -10.30784 -10.30044 -10.29980
 Alpha  occ. eigenvalues --  -10.29562 -10.29538 -10.29312 -10.26998 -10.26529
 Alpha  occ. eigenvalues --  -10.26465 -10.25889 -10.25718 -10.25592 -10.25503
 Alpha  occ. eigenvalues --  -10.25488 -10.25412 -10.25360 -10.24949 -10.24924
 Alpha  occ. eigenvalues --  -10.24624 -10.22262 -10.21531 -10.19656 -10.19447
 Alpha  occ. eigenvalues --  -10.18983  -8.18039  -8.04639  -6.14463  -6.14303
 Alpha  occ. eigenvalues --   -6.14171  -6.00970  -6.00942  -6.00934  -1.15678
 Alpha  occ. eigenvalues --   -1.09521  -1.06213  -1.06058  -1.05191  -1.02975
 Alpha  occ. eigenvalues --   -1.01706  -0.92529  -0.89784  -0.89075  -0.88445
 Alpha  occ. eigenvalues --   -0.88178  -0.87728  -0.86859  -0.85257  -0.82462
 Alpha  occ. eigenvalues --   -0.81543  -0.80104  -0.77617  -0.77110  -0.75042
 Alpha  occ. eigenvalues --   -0.74395  -0.73344  -0.71305  -0.68544  -0.68007
 Alpha  occ. eigenvalues --   -0.66456  -0.65212  -0.64563  -0.62507  -0.61682
 Alpha  occ. eigenvalues --   -0.59984  -0.58608  -0.58090  -0.57690  -0.57132
 Alpha  occ. eigenvalues --   -0.55965  -0.55136  -0.54537  -0.54202  -0.53241
 Alpha  occ. eigenvalues --   -0.52528  -0.52444  -0.51148  -0.50812  -0.50149
 Alpha  occ. eigenvalues --   -0.49729  -0.49185  -0.48608  -0.48398  -0.47837
 Alpha  occ. eigenvalues --   -0.47715  -0.46708  -0.46349  -0.45956  -0.45722
 Alpha  occ. eigenvalues --   -0.45221  -0.44776  -0.44680  -0.44261  -0.43997
 Alpha  occ. eigenvalues --   -0.43392  -0.43083  -0.42352  -0.41426  -0.40602
 Alpha  occ. eigenvalues --   -0.40140  -0.39946  -0.39428  -0.38914  -0.38401
 Alpha  occ. eigenvalues --   -0.38067  -0.36797  -0.36399  -0.36161  -0.35940
 Alpha  occ. eigenvalues --   -0.34843  -0.34722  -0.34030  -0.34003  -0.31953
 Alpha  occ. eigenvalues --   -0.31385  -0.31010  -0.30593  -0.27152  -0.26790
 Alpha  occ. eigenvalues --   -0.24023  -0.23735  -0.23576  -0.20946  -0.20690
 Alpha  occ. eigenvalues --   -0.19736  -0.16569
 Alpha virt. eigenvalues --   -0.13733  -0.07679  -0.07442  -0.04733  -0.02156
 Alpha virt. eigenvalues --   -0.00619  -0.00032   0.00271   0.00886   0.00973
 Alpha virt. eigenvalues --    0.02049   0.02853   0.03928   0.03946   0.04836

 Mulliken atomic charges:
              1
     1  C   -0.009527
     2  C    0.223310
     3  C   -0.130483
     4  C    0.042101
     5  C   -0.243196
     6  C    0.111801
     7  C    0.178933
     8  C    0.080818
     9  N   -0.265321
    10  C    0.088477
    11  C    0.047477
    12  C    0.157215
    13  C   -0.117609
    14  O   -0.319824
    15  C    0.128426
    16  C   -0.090182
    17  C    0.009734
    18  C    0.039788
    19  C    0.097541
    20  N   -0.304183
    21  C    0.082481
    22  C    0.175302
    23  C   -0.149102
    24  C    0.230124
    25  C   -0.004236
    26  C    0.091301
    27  C   -0.249217
    28  C    0.067683
    29  S    0.986482
    30  S    0.989850
    31  O   -0.516739
    32  O   -0.520048
    33  O   -0.524737
    34  O   -0.413284
    35  O   -0.326585
    36  O   -0.436826
    37  H   -0.027673
    38  H   -0.024620
    39  H   -0.006119
    40  H    0.081685
    41  H    0.081677
    42  H    0.058430
    43  H    0.061228
    44  H    0.031445
    45  H    0.024683
    46  H    0.026679
    47  H    0.011867
    48  H   -0.025791
    49  H    0.032342
    50  H    0.026588
    51  H    0.045565
    52  H    0.045536
    53  H    0.077896
    54  H    0.079745
    55  H   -0.002896
    56  H    0.016658
    57  H   -0.013269
    58  H    0.190596
 Sum of Mulliken atomic charges =   0.00000

 Dipole moment (field-independent basis, Debye):
    X=             22.4855    Y=             16.8240    Z=              1.3660  Tot=             28.1160
 Quadrupole moment (field-independent basis, Debye-Ang):
   XX=           -443.2978   YY=           -225.4469   ZZ=           -225.4626
   XY=            -77.0018   XZ=              5.4232   YZ=            -14.6155

 Normal termination of Gaussian 09 at Sat Mar 21 23:33:14 2015.
