 Gaussian 09, Revision B.01,
 Gaussian 09:  EM64L-G09RevB.01 12-Aug-2010

 ------------------------------------------------------
 # opt=modredundant B3LYP/cc-pVDZ Geom=PrintInputOrient
 ------------------------------------------------------

 -------------------------------
 CY3 Dihedral Scan at MP2/6-31G*
 -------------------------------
 Symbolic Z-matrix:
 Charge =  0 Multiplicity = 1

 SCF Done:  E(RB3LYP) =  -2398.26711824     A.U. after   22 cycles
 SCF Done:  E(RB3LYP) =  -2398.26712607     A.U. after    8 cycles
 Optimization completed.
    -- Stationary point found.
 SCF Done:  E(RB3LYP) =  -2398.26301627     A.U. after   14 cycles
 SCF Done:  E(RB3LYP) =  -2398.26483318     A.U. after   12 cycles
 SCF Done:  E(RB3LYP) =  -2398.26501154     A.U. after   12 cycles
 SCF Done:  E(RB3LYP) =  -2398.26503104     A.U. after   11 cycles
 SCF Done:  E(RB3LYP) =  -2398.26503766     A.U. after   11 cycles
 SCF Done:  E(RB3LYP) =  -2398.26504222     A.U. after   11 cycles
 SCF Done:  E(RB3LYP) =  -2398.26504385     A.U. after   10 cycles
 SCF Done:  E(RB3LYP) =  -2398.26504440     A.U. after    8 cycles
 SCF Done:  E(RB3LYP) =  -2398.26504453     A.U. after    7 cycles
 SCF Done:  E(RB3LYP) =  -2398.26504454     A.U. after    7 cycles
 Optimization completed.
    -- Stationary point found.
 SCF Done:  E(RB3LYP) =  -2398.25621331     A.U. after   14 cycles
 SCF Done:  E(RB3LYP) =  -2398.25840742     A.U. after   13 cycles
 SCF Done:  E(RB3LYP) =  -2398.25847844     A.U. after   12 cycles
 SCF Done:  E(RB3LYP) =  -2398.25848348     A.U. after   10 cycles
 SCF Done:  E(RB3LYP) =  -2398.25848420     A.U. after    8 cycles
 SCF Done:  E(RB3LYP) =  -2398.25848431     A.U. after    8 cycles
 Optimization completed.
    -- Stationary point found.

                         Standard orientation:
 ---------------------------------------------------------------------
 Center     Atomic      Atomic             Coordinates (Angstroms)
 Number     Number       Type             X           Y           Z
 ---------------------------------------------------------------------
      1          6           0       -6.090475    1.130742   -0.243895
      2          6           0       -4.749719    0.797736   -0.041895
      3          6           0       -4.310967   -0.527348    0.133098
      4          6           0       -5.225340   -1.566500    0.105326
      5          6           0       -6.582852   -1.253139   -0.077956
      6          6           0       -7.004058    0.073977   -0.260533
      7          6           0       -2.810497   -0.503155    0.303855
      8          6           0       -2.485489    0.970335    0.222691
      9          7           0       -3.620334    1.650362    0.010649
     10          6           0       -3.686845    3.106280   -0.185625
     11          6           0       -2.314704    3.683494   -0.537331
     12          6           0       -1.264228    3.129237    0.432455
     13          6           0       -1.228749    1.618026    0.332245
     14          8           0       -0.007001    3.783280    0.302671
     15          6           0        1.099631    3.076923   -0.256297
     16          6           0        1.195330    1.636079    0.214634
     17          6           0       -0.030431    0.935120    0.327309
     18          6           0        2.347627    3.845676    0.195881
     19          6           0        3.654432    3.150714   -0.198936
     20          7           0        3.597386    1.707145    0.053413
     21          6           0        2.410496    1.006520    0.032543
     22          6           0        2.736584   -0.476246    0.072418
     23          6           0        4.246779   -0.488071    0.013029
     24          6           0        4.699112    0.846249   -0.021380
     25          6           0        6.053155    1.171862   -0.112635
     26          6           0        6.971847    0.116531   -0.153344
     27          6           0        6.520089   -1.203242   -0.099854
     28          6           0        5.155299   -1.530885   -0.029046
     29         16           0       -7.822595   -2.614500   -0.037077
     30         16           0        7.719414   -2.530568   -0.177239
     31          8           0       -8.129544   -2.678455    1.430346
     32          8           0       -8.930331   -2.099000   -0.903524
     33          8           0       -7.052708   -3.783167   -0.576090
     34          8           0        8.993672   -1.992637   -0.680993
     35          8           0        7.880871   -2.828372    1.454623
     36          8           0        7.096892   -3.738352   -0.761549
     37          1           0       -6.420000    2.162153   -0.383373
     38          1           0       -4.944308   -2.616869    0.205181
     39          1           0       -8.068089    0.248042   -0.430112
     40          1           0       -2.285045   -1.067660   -0.484489
     41          1           0       -2.479534   -0.918856    1.270391
     42          1           0       -4.086506    3.554442    0.739739
     43          1           0       -4.415813    3.298837   -0.984973
     44          1           0       -2.355370    4.779780   -0.462541
     45          1           0       -2.041239    3.424668   -1.573447
     46          1           0       -1.597164    3.378696    1.458985
     47          1           0        1.017159    3.076222   -1.361884
     48          1           0       -0.032369   -0.157372    0.369321
     49          1           0        2.283805    3.937693    1.291080
     50          1           0        2.344463    4.863679   -0.220293
     51          1           0        4.489670    3.573113    0.378876
     52          1           0        3.884474    3.307527   -1.268636
     53          1           0        2.278616   -1.001498   -0.782536
     54          1           0        2.347977   -0.953289    0.986847
     55          1           0        6.397995    2.205049   -0.159245
     56          1           0        8.041143    0.311299   -0.237809
     57          1           0        4.842208   -2.575840   -0.025071
     58          1           0        7.958497   -3.799155    1.530182
 ---------------------------------------------------------------------

 The electronic state is 1-A.
 Alpha  occ. eigenvalues --  -89.14995 -89.01765 -19.21165 -19.19586 -19.16719
 Alpha  occ. eigenvalues --  -19.16617 -19.02821 -19.02811 -19.02738 -14.45912
 Alpha  occ. eigenvalues --  -14.44659 -10.30954 -10.30833 -10.30025 -10.30000
 Alpha  occ. eigenvalues --  -10.29504 -10.29468 -10.29196 -10.27050 -10.26623
 Alpha  occ. eigenvalues --  -10.26432 -10.26007 -10.25842 -10.25642 -10.25447
 Alpha  occ. eigenvalues --  -10.25443 -10.25428 -10.25362 -10.24815 -10.24800
 Alpha  occ. eigenvalues --  -10.24502 -10.22196 -10.21474 -10.19644 -10.19358
 Alpha  occ. eigenvalues --  -10.18928  -8.18157  -8.04600  -6.14581  -6.14425
 Alpha  occ. eigenvalues --   -6.14286  -6.00931  -6.00903  -6.00895  -1.15830
 Alpha  occ. eigenvalues --   -1.09310  -1.06123  -1.05971  -1.05315  -1.03118
 Alpha  occ. eigenvalues --   -1.01665  -0.92540  -0.89758  -0.89077  -0.88409
 Alpha  occ. eigenvalues --   -0.88134  -0.87611  -0.86879  -0.85193  -0.82491
 Alpha  occ. eigenvalues --   -0.81547  -0.80078  -0.77622  -0.77091  -0.74967
 Alpha  occ. eigenvalues --   -0.74468  -0.73251  -0.71333  -0.68400  -0.68037
 Alpha  occ. eigenvalues --   -0.66405  -0.65249  -0.64677  -0.62533  -0.61633
 Alpha  occ. eigenvalues --   -0.59879  -0.58635  -0.57881  -0.57582  -0.57096
 Alpha  occ. eigenvalues --   -0.56020  -0.55002  -0.54481  -0.54154  -0.53313
 Alpha  occ. eigenvalues --   -0.52593  -0.52494  -0.51207  -0.50862  -0.50261
 Alpha  occ. eigenvalues --   -0.49662  -0.49192  -0.48710  -0.48421  -0.47773
 Alpha  occ. eigenvalues --   -0.47748  -0.46755  -0.46436  -0.45915  -0.45620
 Alpha  occ. eigenvalues --   -0.45129  -0.44769  -0.44601  -0.44226  -0.43966
 Alpha  occ. eigenvalues --   -0.43146  -0.43000  -0.42334  -0.41634  -0.40684
 Alpha  occ. eigenvalues --   -0.40034  -0.39940  -0.39232  -0.38911  -0.38342
 Alpha  occ. eigenvalues --   -0.38140  -0.36783  -0.36354  -0.36215  -0.35823
 Alpha  occ. eigenvalues --   -0.34789  -0.34581  -0.34232  -0.34164  -0.32116
 Alpha  occ. eigenvalues --   -0.31429  -0.31267  -0.30555  -0.27193  -0.26745
 Alpha  occ. eigenvalues --   -0.23946  -0.23695  -0.23529  -0.20894  -0.20662
 Alpha  occ. eigenvalues --   -0.19690  -0.16532
 Alpha virt. eigenvalues --   -0.13770  -0.07556  -0.07248  -0.05121  -0.02153
 Alpha virt. eigenvalues --   -0.00757  -0.00244   0.00204   0.00864   0.01200
 Alpha virt. eigenvalues --    0.02148   0.03062   0.03838   0.04009   0.04921

 Mulliken atomic charges:
              1
     1  C   -0.008953
     2  C    0.223730
     3  C   -0.131538
     4  C    0.045398
     5  C   -0.243062
     6  C    0.108573
     7  C    0.177966
     8  C    0.082831
     9  N   -0.266038
    10  C    0.088118
    11  C    0.046365
    12  C    0.166822
    13  C   -0.127710
    14  O   -0.328638
    15  C    0.118335
    16  C   -0.095606
    17  C    0.018349
    18  C    0.060597
    19  C    0.082900
    20  N   -0.298712
    21  C    0.067944
    22  C    0.179521
    23  C   -0.148583
    24  C    0.267020
    25  C   -0.007940
    26  C    0.107723
    27  C   -0.251229
    28  C    0.050927
    29  S    0.986650
    30  S    0.994270
    31  O   -0.517197
    32  O   -0.520141
    33  O   -0.525183
    34  O   -0.410586
    35  O   -0.324426
    36  O   -0.437518
    37  H   -0.027820
    38  H   -0.025161
    39  H   -0.006107
    40  H    0.080663
    41  H    0.081746
    42  H    0.058149
    43  H    0.061017
    44  H    0.031212
    45  H    0.024519
    46  H    0.027442
    47  H    0.010382
    48  H   -0.026012
    49  H    0.030334
    50  H    0.024922
    51  H    0.049672
    52  H    0.046480
    53  H    0.075819
    54  H    0.081656
    55  H   -0.011315
    56  H    0.005451
    57  H   -0.014765
    58  H    0.190737
 Sum of Mulliken atomic charges =   0.00000

 Dipole moment (field-independent basis, Debye):
    X=             22.6579    Y=             16.9281    Z=              0.9967  Tot=             28.3008
 Quadrupole moment (field-independent basis, Debye-Ang):
   XX=           -434.5298   YY=           -226.2454   ZZ=           -226.9406
   XY=            -78.6052   XZ=             13.0999   YZ=            -12.6815

 Normal termination of Gaussian 09 at Thu Mar 19 20:50:37 2015.
