 Gaussian 09, Revision B.01,
 Gaussian 09:  EM64L-G09RevB.01 12-Aug-2010

 ------------------------------------------------------
 # opt=modredundant B3LYP/cc-pVDZ Geom=PrintInputOrient
 ------------------------------------------------------

 -------------------------------
 CY3 Dihedral Scan at MP2/6-31G*
 -------------------------------
 Symbolic Z-matrix:
 Charge =  0 Multiplicity = 1

 SCF Done:  E(RB3LYP) =  -2398.26711824     A.U. after   22 cycles
 SCF Done:  E(RB3LYP) =  -2398.26712608     A.U. after    8 cycles
 Optimization completed.
    -- Stationary point found.
 SCF Done:  E(RB3LYP) =  -2398.26424012     A.U. after   14 cycles
 SCF Done:  E(RB3LYP) =  -2398.26420809     A.U. after   10 cycles
 SCF Done:  E(RB3LYP) =  -2398.26489686     A.U. after   11 cycles
 SCF Done:  E(RB3LYP) =  -2398.26494197     A.U. after   11 cycles
 SCF Done:  E(RB3LYP) =  -2398.26495586     A.U. after   11 cycles
 SCF Done:  E(RB3LYP) =  -2398.26495913     A.U. after   10 cycles
 SCF Done:  E(RB3LYP) =  -2398.26496003     A.U. after    8 cycles
 SCF Done:  E(RB3LYP) =  -2398.26496044     A.U. after    7 cycles
 SCF Done:  E(RB3LYP) =  -2398.26496533     A.U. after   10 cycles
 SCF Done:  E(RB3LYP) =  -2398.26496553     A.U. after    8 cycles
 Optimization completed.
    -- Stationary point found.
 SCF Done:  E(RB3LYP) =  -2398.25739028     A.U. after   14 cycles
 SCF Done:  E(RB3LYP) =  -2398.25736261     A.U. after   11 cycles
 SCF Done:  E(RB3LYP) =  -2398.25838307     A.U. after   12 cycles
 SCF Done:  E(RB3LYP) =  -2398.25839868     A.U. after   11 cycles
 SCF Done:  E(RB3LYP) =  -2398.25840087     A.U. after   10 cycles
 SCF Done:  E(RB3LYP) =  -2398.25840158     A.U. after    8 cycles
 SCF Done:  E(RB3LYP) =  -2398.25840184     A.U. after    8 cycles
 SCF Done:  E(RB3LYP) =  -2398.25840194     A.U. after    8 cycles
 Optimization completed.
    -- Stationary point found.

                         Standard orientation:
 ---------------------------------------------------------------------
 Center     Atomic      Atomic             Coordinates (Angstroms)
 Number     Number       Type             X           Y           Z
 ---------------------------------------------------------------------
      1          6           0       -6.088563    1.148525   -0.178208
      2          6           0       -4.749681    0.792235   -0.004936
      3          6           0       -4.323801   -0.543885    0.104429
      4          6           0       -5.250119   -1.570937    0.038144
      5          6           0       -6.605630   -1.235012   -0.116654
      6          6           0       -7.013867    0.103574   -0.234137
      7          6           0       -2.821437   -0.543417    0.260079
      8          6           0       -2.481718    0.928735    0.247109
      9          7           0       -3.610567    1.629943    0.076126
     10          6           0       -3.664986    3.094022   -0.056936
     11          6           0       -2.290141    3.677714   -0.390055
     12          6           0       -1.243409    3.066906    0.549948
     13          6           0       -1.218839    1.560477    0.376297
     14          8           0        0.026527    3.702101    0.470951
     15          6           0        1.064173    3.039215   -0.252095
     16          6           0        1.193747    1.581262    0.151404
     17          6           0       -0.021719    0.876099    0.336411
     18          6           0        2.351466    3.810102    0.035407
     19          6           0        3.572853    3.089871   -0.535157
     20          7           0        3.590404    1.699085   -0.086184
     21          6           0        2.441269    1.001560    0.199594
     22          6           0        2.825662   -0.430334    0.514639
     23          6           0        4.343070   -0.385469    0.512812
     24          6           0        4.715831    0.870657   -0.019024
     25          6           0        5.990469    1.128546   -0.531481
     26          6           0        6.892493    0.062696   -0.594323
     27          6           0        6.521007   -1.188533   -0.094416
     28          6           0        5.284645   -1.406010    0.530895
     29         16           0       -7.861450   -2.582417   -0.124713
     30         16           0        7.689354   -2.541755   -0.189165
     31          8           0       -8.177906   -2.687640    1.338244
     32          8           0       -8.957882   -2.026116   -0.980271
     33          8           0       -7.103238   -3.743219   -0.696180
     34          8           0        8.679336   -2.230318   -1.232083
     35          8           0        8.431218   -2.383276    1.294099
     36          8           0        6.963564   -3.830289   -0.152652
     37          1           0       -6.408013    2.188727   -0.266592
     38          1           0       -4.980512   -2.627921    0.087004
     39          1           0       -8.077295    0.297065   -0.385297
     40          1           0       -2.310012   -1.073644   -0.560514
     41          1           0       -2.484236   -1.009155    1.201403
     42          1           0       -4.056137    3.504624    0.889219
     43          1           0       -4.396815    3.326303   -0.842997
     44          1           0       -2.323219    4.769383   -0.262355
     45          1           0       -2.026351    3.466362   -1.439308
     46          1           0       -1.575381    3.266629    1.586868
     47          1           0        0.837844    3.083342   -1.338153
     48          1           0       -0.018074   -0.216920    0.372824
     49          1           0        2.448803    3.908758    1.128333
     50          1           0        2.291280    4.823154   -0.387121
     51          1           0        4.496218    3.577923   -0.192051
     52          1           0        3.574088    3.115059   -1.640646
     53          1           0        2.471217   -1.110556   -0.279248
     54          1           0        2.375318   -0.775235    1.458440
     55          1           0        6.255404    2.100109   -0.949755
     56          1           0        7.872403    0.187206   -1.055737
     57          1           0        5.029309   -2.409993    0.875961
     58          1           0        8.469218   -3.289193    1.656826
 ---------------------------------------------------------------------

 The electronic state is 1-A.
 Alpha  occ. eigenvalues --  -89.15058 -89.01733 -19.21192 -19.19684 -19.16792
 Alpha  occ. eigenvalues --  -19.16667 -19.02791 -19.02776 -19.02701 -14.45928
 Alpha  occ. eigenvalues --  -14.44529 -10.30960 -10.30735 -10.29974 -10.29917
 Alpha  occ. eigenvalues --  -10.29552 -10.29526 -10.29238 -10.27112 -10.26639
 Alpha  occ. eigenvalues --  -10.26462 -10.26027 -10.25886 -10.25735 -10.25441
 Alpha  occ. eigenvalues --  -10.25423 -10.25397 -10.25335 -10.24926 -10.24854
 Alpha  occ. eigenvalues --  -10.24533 -10.22180 -10.21457 -10.19606 -10.19347
 Alpha  occ. eigenvalues --  -10.18902  -8.18217  -8.04568  -6.14640  -6.14487
 Alpha  occ. eigenvalues --   -6.14344  -6.00899  -6.00872  -6.00863  -1.15909
 Alpha  occ. eigenvalues --   -1.09449  -1.06135  -1.06043  -1.05355  -1.03212
 Alpha  occ. eigenvalues --   -1.01633  -0.92556  -0.89709  -0.89006  -0.88376
 Alpha  occ. eigenvalues --   -0.88103  -0.87743  -0.86802  -0.85186  -0.82504
 Alpha  occ. eigenvalues --   -0.81590  -0.80077  -0.77633  -0.77047  -0.74975
 Alpha  occ. eigenvalues --   -0.74363  -0.73287  -0.71299  -0.68457  -0.67988
 Alpha  occ. eigenvalues --   -0.66442  -0.65250  -0.64779  -0.62498  -0.61622
 Alpha  occ. eigenvalues --   -0.59943  -0.58692  -0.58076  -0.57762  -0.57159
 Alpha  occ. eigenvalues --   -0.55929  -0.55091  -0.54475  -0.54159  -0.53285
 Alpha  occ. eigenvalues --   -0.52528  -0.52516  -0.51295  -0.50819  -0.50067
 Alpha  occ. eigenvalues --   -0.49603  -0.49271  -0.48841  -0.48431  -0.47766
 Alpha  occ. eigenvalues --   -0.47641  -0.46834  -0.46398  -0.45900  -0.45659
 Alpha  occ. eigenvalues --   -0.45110  -0.44898  -0.44580  -0.44318  -0.43943
 Alpha  occ. eigenvalues --   -0.43348  -0.43050  -0.42337  -0.41554  -0.40484
 Alpha  occ. eigenvalues --   -0.40046  -0.39945  -0.39364  -0.38821  -0.38328
 Alpha  occ. eigenvalues --   -0.38072  -0.36798  -0.36336  -0.36232  -0.35876
 Alpha  occ. eigenvalues --   -0.34786  -0.34672  -0.34285  -0.34080  -0.32336
 Alpha  occ. eigenvalues --   -0.31421  -0.31293  -0.30571  -0.27112  -0.26717
 Alpha  occ. eigenvalues --   -0.23940  -0.23664  -0.23507  -0.20865  -0.20629
 Alpha  occ. eigenvalues --   -0.19664  -0.16500
 Alpha virt. eigenvalues --   -0.13651  -0.07776  -0.07500  -0.04656  -0.02088
 Alpha virt. eigenvalues --   -0.00543   0.00033   0.00254   0.00884   0.01092
 Alpha virt. eigenvalues --    0.02102   0.02945   0.03860   0.04046   0.04483

 Mulliken atomic charges:
              1
     1  C   -0.009223
     2  C    0.223505
     3  C   -0.131544
     4  C    0.044190
     5  C   -0.243044
     6  C    0.109618
     7  C    0.179056
     8  C    0.080882
     9  N   -0.265742
    10  C    0.088463
    11  C    0.047852
    12  C    0.157365
    13  C   -0.118933
    14  O   -0.320171
    15  C    0.127204
    16  C   -0.091451
    17  C    0.009233
    18  C    0.043205
    19  C    0.092731
    20  N   -0.304544
    21  C    0.087935
    22  C    0.155551
    23  C   -0.143719
    24  C    0.243873
    25  C   -0.002781
    26  C    0.107695
    27  C   -0.247216
    28  C    0.057808
    29  S    0.986479
    30  S    0.995147
    31  O   -0.517275
    32  O   -0.520324
    33  O   -0.525035
    34  O   -0.410020
    35  O   -0.324309
    36  O   -0.440401
    37  H   -0.027989
    38  H   -0.024823
    39  H   -0.006221
    40  H    0.081594
    41  H    0.081361
    42  H    0.058166
    43  H    0.061048
    44  H    0.031152
    45  H    0.024503
    46  H    0.026540
    47  H    0.011404
    48  H   -0.024955
    49  H    0.032795
    50  H    0.026481
    51  H    0.048500
    52  H    0.044160
    53  H    0.085196
    54  H    0.067008
    55  H   -0.010299
    56  H    0.007682
    57  H   -0.006617
    58  H    0.191251
 Sum of Mulliken atomic charges =   0.00000

 Dipole moment (field-independent basis, Debye):
    X=             23.2356    Y=             17.3112    Z=              1.4729  Tot=             29.0127
 Quadrupole moment (field-independent basis, Debye-Ang):
   XX=           -430.0066   YY=           -230.4514   ZZ=           -224.7658
   XY=            -76.9047   XZ=             10.0033   YZ=            -15.8917

 Normal termination of Gaussian 09 at Sat Mar 21 19:22:42 2015.
