 Gaussian 09, Revision B.01,
 Gaussian 09:  EM64L-G09RevB.01 12-Aug-2010

 ------------------------------------------------------
 # opt=modredundant B3LYP/cc-pVDZ Geom=PrintInputOrient
 ------------------------------------------------------

 -------------------------------
 CY3 Dihedral Scan at MP2/6-31G*
 -------------------------------
 Symbolic Z-matrix:
 Charge =  0 Multiplicity = 1

 SCF Done:  E(RB3LYP) =  -2398.26711824     A.U. after   22 cycles
 SCF Done:  E(RB3LYP) =  -2398.26712608     A.U. after    8 cycles
 Optimization completed.
    -- Stationary point found.
 SCF Done:  E(RB3LYP) =  -2398.26108674     A.U. after   14 cycles
 SCF Done:  E(RB3LYP) =  -2398.26606051     A.U. after   16 cycles
 SCF Done:  E(RB3LYP) =  -2398.26657069     A.U. after   12 cycles
 SCF Done:  E(RB3LYP) =  -2398.26661595     A.U. after   11 cycles
 SCF Done:  E(RB3LYP) =  -2398.26662216     A.U. after   10 cycles
 SCF Done:  E(RB3LYP) =  -2398.26662390     A.U. after    8 cycles
 SCF Done:  E(RB3LYP) =  -2398.26662448     A.U. after    8 cycles
 SCF Done:  E(RB3LYP) =  -2398.26662463     A.U. after    8 cycles
 SCF Done:  E(RB3LYP) =  -2398.26662466     A.U. after    7 cycles
 Optimization completed.
    -- Stationary point found.
 SCF Done:  E(RB3LYP) =  -2398.25964176     A.U. after   15 cycles
 SCF Done:  E(RB3LYP) =  -2398.26540235     A.U. after   17 cycles
 SCF Done:  E(RB3LYP) =  -2398.26591512     A.U. after   12 cycles
 SCF Done:  E(RB3LYP) =  -2398.26593684     A.U. after   11 cycles
 SCF Done:  E(RB3LYP) =  -2398.26594374     A.U. after   11 cycles
 SCF Done:  E(RB3LYP) =  -2398.26594572     A.U. after   11 cycles
 SCF Done:  E(RB3LYP) =  -2398.26594655     A.U. after   11 cycles
 SCF Done:  E(RB3LYP) =  -2398.26594673     A.U. after    8 cycles
 SCF Done:  E(RB3LYP) =  -2398.26594675     A.U. after    7 cycles
 Optimization completed.
    -- Stationary point found.

                         Standard orientation:
 ---------------------------------------------------------------------
 Center     Atomic      Atomic             Coordinates (Angstroms)
 Number     Number       Type             X           Y           Z
 ---------------------------------------------------------------------
      1          6           0       -6.120560    1.131018    0.293462
      2          6           0       -4.771255    0.791384    0.172136
      3          6           0       -4.335080   -0.524997   -0.063561
      4          6           0       -5.260572   -1.547491   -0.187489
      5          6           0       -6.622652   -1.231707   -0.050913
      6          6           0       -7.043302    0.089615    0.173952
      7          6           0       -2.827603   -0.507791   -0.152566
      8          6           0       -2.492158    0.947037    0.079798
      9          7           0       -3.633199    1.630425    0.239887
     10          6           0       -3.690866    3.080597    0.465456
     11          6           0       -2.412837    3.759131   -0.022676
     12          6           0       -1.180833    3.032613    0.520893
     13          6           0       -1.219271    1.566487    0.140010
     14          8           0       -0.010201    3.747786    0.131747
     15          6           0        1.115428    3.073176   -0.432073
     16          6           0        1.185822    1.585565   -0.139896
     17          6           0       -0.037088    0.879714   -0.037703
     18          6           0        2.373373    3.783198    0.071831
     19          6           0        3.635910    3.124747   -0.483117
     20          7           0        3.596679    1.680039   -0.255731
     21          6           0        2.422906    0.980241   -0.098927
     22          6           0        2.764549   -0.483544    0.108976
     23          6           0        4.272496   -0.491191    0.003049
     24          6           0        4.708291    0.830955   -0.219850
     25          6           0        6.056423    1.153097   -0.383775
     26          6           0        6.986086    0.109735   -0.303247
     27          6           0        6.551277   -1.194732   -0.062478
     28          6           0        5.192081   -1.521783    0.082010
     29         16           0       -7.864138   -2.589669   -0.129963
     30         16           0        7.764553   -2.508488    0.020479
     31          8           0       -7.987261   -2.949888    1.321532
     32          8           0       -9.064688   -1.923298   -0.728349
     33          8           0       -7.184593   -3.616739   -0.985755
     34          8           0        9.024883   -2.033117   -0.573359
     35          8           0        7.953550   -2.577651    1.675332
     36          8           0        7.147775   -3.791031   -0.382227
     37          1           0       -6.449659    2.156475    0.472174
     38          1           0       -4.988967   -2.584015   -0.397682
     39          1           0       -8.116600    0.276822    0.237442
     40          1           0       -2.455363   -0.843825   -1.134636
     41          1           0       -2.344514   -1.144438    0.607881
     42          1           0       -3.857456    3.251107    1.542832
     43          1           0       -4.569783    3.466412   -0.068542
     44          1           0       -2.407514    4.807185    0.309175
     45          1           0       -2.375012    3.755847   -1.124265
     46          1           0       -1.218511    3.074105    1.629287
     47          1           0        1.053134    3.191524   -1.533772
     48          1           0       -0.044733   -0.210507   -0.123316
     49          1           0        2.376436    3.743672    1.172952
     50          1           0        2.352538    4.841766   -0.224185
     51          1           0        4.527683    3.530614    0.016185
     52          1           0        3.746224    3.316610   -1.565887
     53          1           0        2.283823   -1.117588   -0.654976
     54          1           0        2.411708   -0.841300    1.089991
     55          1           0        6.387915    2.172903   -0.580617
     56          1           0        8.050996    0.300905   -0.437103
     57          1           0        4.891797   -2.558824    0.237722
     58          1           0        8.055768   -3.527118    1.880829
 ---------------------------------------------------------------------

 The electronic state is 1-A.
 Alpha  occ. eigenvalues --  -89.14977 -89.01767 -19.21151 -19.19480 -19.16698
 Alpha  occ. eigenvalues --  -19.16602 -19.02832 -19.02804 -19.02744 -14.45847
 Alpha  occ. eigenvalues --  -14.44705 -10.30882 -10.30845 -10.30020 -10.30007
 Alpha  occ. eigenvalues --  -10.29544 -10.29539 -10.29097 -10.27078 -10.26593
 Alpha  occ. eigenvalues --  -10.26422 -10.26000 -10.25835 -10.25640 -10.25442
 Alpha  occ. eigenvalues --  -10.25416 -10.25377 -10.25307 -10.24838 -10.24748
 Alpha  occ. eigenvalues --  -10.24666 -10.22178 -10.21459 -10.19587 -10.19393
 Alpha  occ. eigenvalues --  -10.18930  -8.18140  -8.04602  -6.14563  -6.14407
 Alpha  occ. eigenvalues --   -6.14268  -6.00932  -6.00905  -6.00897  -1.15808
 Alpha  occ. eigenvalues --   -1.09085  -1.06134  -1.06045  -1.05297  -1.03098
 Alpha  occ. eigenvalues --   -1.01668  -0.92588  -0.89751  -0.89085  -0.88409
 Alpha  occ. eigenvalues --   -0.88139  -0.87757  -0.86866  -0.85173  -0.82528
 Alpha  occ. eigenvalues --   -0.81589  -0.80049  -0.77606  -0.77170  -0.74938
 Alpha  occ. eigenvalues --   -0.74469  -0.73275  -0.71383  -0.68259  -0.68090
 Alpha  occ. eigenvalues --   -0.66459  -0.65288  -0.64707  -0.62583  -0.61666
 Alpha  occ. eigenvalues --   -0.59788  -0.58692  -0.57885  -0.57580  -0.57159
 Alpha  occ. eigenvalues --   -0.56101  -0.55123  -0.54535  -0.54208  -0.53194
 Alpha  occ. eigenvalues --   -0.52586  -0.52369  -0.51379  -0.50895  -0.50183
 Alpha  occ. eigenvalues --   -0.49695  -0.49188  -0.48717  -0.48386  -0.47826
 Alpha  occ. eigenvalues --   -0.47718  -0.46793  -0.46500  -0.45900  -0.45624
 Alpha  occ. eigenvalues --   -0.45142  -0.44660  -0.44587  -0.44165  -0.43947
 Alpha  occ. eigenvalues --   -0.43360  -0.42852  -0.42063  -0.41810  -0.40699
 Alpha  occ. eigenvalues --   -0.39908  -0.39843  -0.39435  -0.38944  -0.38377
 Alpha  occ. eigenvalues --   -0.38123  -0.36668  -0.36356  -0.36201  -0.35908
 Alpha  occ. eigenvalues --   -0.34973  -0.34731  -0.34197  -0.34141  -0.32076
 Alpha  occ. eigenvalues --   -0.31418  -0.31035  -0.30481  -0.27191  -0.26729
 Alpha  occ. eigenvalues --   -0.23978  -0.23701  -0.23525  -0.20909  -0.20647
 Alpha  occ. eigenvalues --   -0.19686  -0.16534
 Alpha virt. eigenvalues --   -0.13730  -0.07466  -0.07223  -0.04572  -0.02098
 Alpha virt. eigenvalues --   -0.00539   0.00015   0.00289   0.00837   0.00996
 Alpha virt. eigenvalues --    0.02194   0.03005   0.04009   0.04181   0.05091

 Mulliken atomic charges:
              1
     1  C   -0.009854
     2  C    0.223083
     3  C   -0.130100
     4  C    0.041713
     5  C   -0.243128
     6  C    0.112272
     7  C    0.179357
     8  C    0.086286
     9  N   -0.266150
    10  C    0.089950
    11  C    0.043308
    12  C    0.165662
    13  C   -0.122127
    14  O   -0.333786
    15  C    0.161468
    16  C   -0.134898
    17  C    0.015551
    18  C    0.041105
    19  C    0.093373
    20  N   -0.315089
    21  C    0.084733
    22  C    0.184944
    23  C   -0.154491
    24  C    0.268067
    25  C   -0.010209
    26  C    0.108726
    27  C   -0.251785
    28  C    0.050893
    29  S    0.986347
    30  S    0.994393
    31  O   -0.517037
    32  O   -0.519922
    33  O   -0.524604
    34  O   -0.410761
    35  O   -0.325014
    36  O   -0.437356
    37  H   -0.027257
    38  H   -0.024870
    39  H   -0.006347
    40  H    0.082431
    41  H    0.080195
    42  H    0.057742
    43  H    0.060861
    44  H    0.030325
    45  H    0.027915
    46  H    0.023220
    47  H    0.017367
    48  H   -0.025784
    49  H    0.026712
    50  H    0.027888
    51  H    0.047926
    52  H    0.046669
    53  H    0.080187
    54  H    0.079312
    55  H   -0.010534
    56  H    0.005399
    57  H   -0.014796
    58  H    0.190516
 Sum of Mulliken atomic charges =   0.00000

 Dipole moment (field-independent basis, Debye):
    X=             22.8541    Y=             17.0155    Z=              1.9195  Tot=             28.5573
 Quadrupole moment (field-independent basis, Debye-Ang):
   XX=           -436.1261   YY=           -228.3978   ZZ=           -224.5557
   XY=            -76.4265   XZ=              4.4323   YZ=             -9.6590

 Normal termination of Gaussian 09 at Wed Mar 18 21:58:55 2015.
