 Gaussian 09, Revision B.01,
 Gaussian 09:  EM64L-G09RevB.01 12-Aug-2010

 ------------------------------------------------------
 # opt=modredundant B3LYP/cc-pVDZ Geom=PrintInputOrient
 ------------------------------------------------------

 -------------------------------
 CY3 Dihedral Scan at MP2/6-31G*
 -------------------------------
 Symbolic Z-matrix:
 Charge =  0 Multiplicity = 1

 SCF Done:  E(RB3LYP) =  -2398.26711824     A.U. after   22 cycles
 SCF Done:  E(RB3LYP) =  -2398.26712600     A.U. after    8 cycles
 Optimization completed.
    -- Stationary point found.
 SCF Done:  E(RB3LYP) =  -2398.26402000     A.U. after   13 cycles
 SCF Done:  E(RB3LYP) =  -2398.26404696     A.U. after   12 cycles
 SCF Done:  E(RB3LYP) =  -2398.26431202     A.U. after   12 cycles
 SCF Done:  E(RB3LYP) =  -2398.26432463     A.U. after   11 cycles
 SCF Done:  E(RB3LYP) =  -2398.26432681     A.U. after   10 cycles
 SCF Done:  E(RB3LYP) =  -2398.26432715     A.U. after    8 cycles
 SCF Done:  E(RB3LYP) =  -2398.26432732     A.U. after    7 cycles
 SCF Done:  E(RB3LYP) =  -2398.26432737     A.U. after    6 cycles
 Optimization completed.
    -- Stationary point found.
 SCF Done:  E(RB3LYP) =  -2398.25470002     A.U. after   14 cycles
 SCF Done:  E(RB3LYP) =  -2398.25551499     A.U. after   12 cycles
 SCF Done:  E(RB3LYP) =  -2398.25552707     A.U. after   11 cycles
 SCF Done:  E(RB3LYP) =  -2398.25552862     A.U. after    8 cycles
 SCF Done:  E(RB3LYP) =  -2398.25552889     A.U. after    8 cycles
 SCF Done:  E(RB3LYP) =  -2398.25552897     A.U. after    7 cycles
 Optimization completed.
    -- Stationary point found.

                         Standard orientation:
 ---------------------------------------------------------------------
 Center     Atomic      Atomic             Coordinates (Angstroms)
 Number     Number       Type             X           Y           Z
 ---------------------------------------------------------------------
      1          6           0       -6.064437    1.127668   -0.463357
      2          6           0       -4.775835    0.766946   -0.054579
      3          6           0       -4.337105   -0.570798   -0.122315
      4          6           0       -5.289405   -1.577967   -0.172483
      5          6           0       -6.648519   -1.208421   -0.166352
      6          6           0       -7.039032    0.137847   -0.300549
      7          6           0       -2.834523   -0.586488    0.011230
      8          6           0       -2.496297    0.880277    0.143514
      9          7           0       -3.625589    1.594290    0.044912
     10          6           0       -3.676281    3.064604    0.051732
     11          6           0       -2.301442    3.673792   -0.231001
     12          6           0       -1.252319    2.978002    0.644931
     13          6           0       -1.232147    1.494514    0.332605
     14          8           0        0.018805    3.615052    0.617928
     15          6           0        1.051562    3.021975   -0.170225
     16          6           0        1.179242    1.532120    0.091769
     17          6           0       -0.036629    0.815287    0.221765
     18          6           0        2.341666    3.757249    0.188440
     19          6           0        3.559744    3.095266   -0.453978
     20          7           0        3.574841    1.664024   -0.156698
     21          6           0        2.424693    0.946368    0.080583
     22          6           0        2.805255   -0.506902    0.293454
     23          6           0        4.303172   -0.491321    0.088443
     24          6           0        4.700504    0.834170   -0.183101
     25          6           0        6.028934    1.174312   -0.443491
     26          6           0        6.979360    0.147254   -0.410822
     27          6           0        6.584030   -1.159957   -0.121922
     28          6           0        5.243246   -1.505800    0.119416
     29         16           0       -7.924853   -2.521876    0.014284
     30         16           0        7.822091   -2.452751   -0.104024
     31          8           0       -8.049886   -2.586193    1.508657
     32          8           0       -9.112095   -1.958162   -0.704078
     33          8           0       -7.273497   -3.713356   -0.622125
     34          8           0        9.034255   -1.962118   -0.780030
     35          8           0        8.116880   -2.504822    1.535911
     36          8           0        7.203502   -3.749376   -0.456009
     37          1           0       -6.352511    2.170519   -0.616987
     38          1           0       -5.045689   -2.641893   -0.203292
     39          1           0       -8.102491    0.345312   -0.431140
     40          1           0       -2.341414   -1.020702   -0.874928
     41          1           0       -2.477340   -1.153152    0.887170
     42          1           0       -4.063590    3.384292    1.033734
     43          1           0       -4.408522    3.375454   -0.706015
     44          1           0       -2.332236    4.749265   -0.003749
     45          1           0       -2.041245    3.559118   -1.296113
     46          1           0       -1.578876    3.083124    1.697300
     47          1           0        0.822024    3.171447   -1.246107
     48          1           0       -0.034238   -0.276572    0.157338
     49          1           0        2.441010    3.747143    1.285619
     50          1           0        2.283311    4.807426   -0.131178
     51          1           0        4.484230    3.542459   -0.061668
     52          1           0        3.562023    3.236421   -1.550543
     53          1           0        2.286889   -1.165780   -0.423218
     54          1           0        2.523992   -0.848024    1.303206
     55          1           0        6.329390    2.195844   -0.677736
     56          1           0        8.029396    0.352960   -0.619597
     57          1           0        4.971266   -2.545039    0.308923
     58          1           0        8.235724   -3.451957    1.743053
 ---------------------------------------------------------------------

 The electronic state is 1-A.
 Alpha  occ. eigenvalues --  -89.14932 -89.01812 -19.21102 -19.19671 -19.16652
 Alpha  occ. eigenvalues --  -19.16559 -19.02888 -19.02845 -19.02796 -14.45860
 Alpha  occ. eigenvalues --  -14.44573 -10.30932 -10.30732 -10.29945 -10.29913
 Alpha  occ. eigenvalues --  -10.29531 -10.29487 -10.29195 -10.26996 -10.26525
 Alpha  occ. eigenvalues --  -10.26443 -10.25928 -10.25776 -10.25576 -10.25479
 Alpha  occ. eigenvalues --  -10.25408 -10.25384 -10.25344 -10.24910 -10.24840
 Alpha  occ. eigenvalues --  -10.24538 -10.22293 -10.21583 -10.19628 -10.19472
 Alpha  occ. eigenvalues --  -10.19039  -8.18094  -8.04649  -6.14518  -6.14362
 Alpha  occ. eigenvalues --   -6.14223  -6.00979  -6.00952  -6.00943  -1.15765
 Alpha  occ. eigenvalues --   -1.09432  -1.06053  -1.05972  -1.05251  -1.03052
 Alpha  occ. eigenvalues --   -1.01711  -0.92518  -0.89728  -0.89017  -0.88457
 Alpha  occ. eigenvalues --   -0.88182  -0.87721  -0.86794  -0.85245  -0.82484
 Alpha  occ. eigenvalues --   -0.81564  -0.80074  -0.77621  -0.77002  -0.74959
 Alpha  occ. eigenvalues --   -0.74364  -0.73317  -0.71281  -0.68470  -0.67972
 Alpha  occ. eigenvalues --   -0.66439  -0.65225  -0.64652  -0.62451  -0.61537
 Alpha  occ. eigenvalues --   -0.59890  -0.58675  -0.57987  -0.57667  -0.57082
 Alpha  occ. eigenvalues --   -0.55804  -0.55184  -0.54551  -0.54206  -0.53198
 Alpha  occ. eigenvalues --   -0.52514  -0.52342  -0.51347  -0.50814  -0.50120
 Alpha  occ. eigenvalues --   -0.49681  -0.49231  -0.48702  -0.48376  -0.47753
 Alpha  occ. eigenvalues --   -0.47726  -0.46735  -0.46315  -0.45880  -0.45703
 Alpha  occ. eigenvalues --   -0.45182  -0.44744  -0.44516  -0.44169  -0.43902
 Alpha  occ. eigenvalues --   -0.43282  -0.43016  -0.42387  -0.41558  -0.40625
 Alpha  occ. eigenvalues --   -0.40102  -0.39956  -0.39370  -0.38898  -0.38386
 Alpha  occ. eigenvalues --   -0.38032  -0.36746  -0.36437  -0.36178  -0.35888
 Alpha  occ. eigenvalues --   -0.34992  -0.34590  -0.34119  -0.34077  -0.32049
 Alpha  occ. eigenvalues --   -0.31374  -0.31320  -0.30580  -0.27034  -0.26551
 Alpha  occ. eigenvalues --   -0.23958  -0.23743  -0.23559  -0.20941  -0.20709
 Alpha  occ. eigenvalues --   -0.19719  -0.16580
 Alpha virt. eigenvalues --   -0.13650  -0.07423  -0.07166  -0.04597  -0.02372
 Alpha virt. eigenvalues --   -0.01146   0.00011   0.00296   0.00858   0.01004
 Alpha virt. eigenvalues --    0.02034   0.03016   0.03941   0.04047   0.04843

 Mulliken atomic charges:
              1
     1  C   -0.014727
     2  C    0.176883
     3  C   -0.116875
     4  C    0.064504
     5  C   -0.248346
     6  C    0.099568
     7  C    0.155783
     8  C    0.092593
     9  N   -0.255691
    10  C    0.091399
    11  C    0.042700
    12  C    0.158257
    13  C   -0.109123
    14  O   -0.320120
    15  C    0.129613
    16  C   -0.098265
    17  C    0.008544
    18  C    0.038708
    19  C    0.095857
    20  N   -0.314264
    21  C    0.081870
    22  C    0.186779
    23  C   -0.156063
    24  C    0.268424
    25  C   -0.010389
    26  C    0.108694
    27  C   -0.251943
    28  C    0.050791
    29  S    0.986608
    30  S    0.994495
    31  O   -0.517420
    32  O   -0.519770
    33  O   -0.523318
    34  O   -0.410971
    35  O   -0.325019
    36  O   -0.437967
    37  H   -0.014831
    38  H   -0.020208
    39  H    0.002899
    40  H    0.078815
    41  H    0.082751
    42  H    0.059285
    43  H    0.062003
    44  H    0.031190
    45  H    0.023641
    46  H    0.027193
    47  H    0.011249
    48  H   -0.026375
    49  H    0.032573
    50  H    0.026456
    51  H    0.048040
    52  H    0.045266
    53  H    0.078646
    54  H    0.080220
    55  H   -0.010885
    56  H    0.005175
    57  H   -0.015287
    58  H    0.190386
 Sum of Mulliken atomic charges =   0.00000

 Dipole moment (field-independent basis, Debye):
    X=             22.8231    Y=             16.7099    Z=              0.4958  Tot=             28.2906
 Quadrupole moment (field-independent basis, Debye-Ang):
   XX=           -440.2684   YY=           -225.7815   ZZ=           -225.5834
   XY=            -75.7736   XZ=             15.4255   YZ=            -12.7425

 Normal termination of Gaussian 09 at Tue Mar 17 16:50:49 2015.
