 Gaussian 09, Revision B.01,
 Gaussian 09:  EM64L-G09RevB.01 12-Aug-2010

 ------------------------------------------------------
 # opt=modredundant B3LYP/cc-pVDZ Geom=PrintInputOrient
 ------------------------------------------------------

 -------------------------------
 CY3 Dihedral Scan at MP2/6-31G*
 -------------------------------
 Symbolic Z-matrix:
 Charge =  0 Multiplicity = 1

 SCF Done:  E(RB3LYP) =  -2398.26711824     A.U. after   22 cycles
 SCF Done:  E(RB3LYP) =  -2398.26712600     A.U. after    8 cycles
 Optimization completed.
    -- Stationary point found.
 SCF Done:  E(RB3LYP) =  -2398.26398735     A.U. after   13 cycles
 SCF Done:  E(RB3LYP) =  -2398.26308456     A.U. after   13 cycles
 SCF Done:  E(RB3LYP) =  -2398.26425675     A.U. after   12 cycles
 SCF Done:  E(RB3LYP) =  -2398.26427293     A.U. after   11 cycles
 SCF Done:  E(RB3LYP) =  -2398.26427651     A.U. after   11 cycles
 SCF Done:  E(RB3LYP) =  -2398.26427758     A.U. after   10 cycles
 SCF Done:  E(RB3LYP) =  -2398.26427795     A.U. after    8 cycles
 SCF Done:  E(RB3LYP) =  -2398.26427810     A.U. after    8 cycles
 Optimization completed.
    -- Stationary point found.
 SCF Done:  E(RB3LYP) =  -2398.25608236     A.U. after   12 cycles
 SCF Done:  E(RB3LYP) =  -2398.25608390     A.U. after   10 cycles
 SCF Done:  E(RB3LYP) =  -2398.25608402     A.U. after    8 cycles
 SCF Done:  E(RB3LYP) =  -2398.25608409     A.U. after    7 cycles
 SCF Done:  E(RB3LYP) =  -2398.25608425     A.U. after    8 cycles
 SCF Done:  E(RB3LYP) =  -2398.25608443     A.U. after    7 cycles
 SCF Done:  E(RB3LYP) =  -2398.25608472     A.U. after    8 cycles
 SCF Done:  E(RB3LYP) =  -2398.25608499     A.U. after    8 cycles
 SCF Done:  E(RB3LYP) =  -2398.25608521     A.U. after    8 cycles
 SCF Done:  E(RB3LYP) =  -2398.25608527     A.U. after    8 cycles
 Optimization completed.
    -- Stationary point found.

                         Standard orientation:
 ---------------------------------------------------------------------
 Center     Atomic      Atomic             Coordinates (Angstroms)
 Number     Number       Type             X           Y           Z
 ---------------------------------------------------------------------
      1          6           0        6.118891    1.119633   -0.381304
      2          6           0        4.777525    0.764305   -0.202382
      3          6           0        4.344511   -0.566088   -0.362592
      4          6           0        5.283490   -1.582932   -0.262310
      5          6           0        6.625859   -1.227138   -0.029537
      6          6           0        7.045399    0.116530   -0.080425
      7          6           0        2.839395   -0.565143   -0.468738
      8          6           0        2.500420    0.906179   -0.401802
      9          7           0        3.635889    1.605111   -0.274322
     10          6           0        3.694107    3.067351   -0.121870
     11          6           0        2.342069    3.639334    0.310431
     12          6           0        1.241672    3.047112   -0.579221
     13          6           0        1.230609    1.536813   -0.440873
     14          8           0       -0.022644    3.675555   -0.410794
     15          6           0       -1.017420    2.995124    0.355192
     16          6           0       -1.164098    1.544004   -0.066039
     17          6           0        0.039442    0.848481   -0.342279
     18          6           0       -2.321130    3.763316    0.145322
     19          6           0       -3.508089    3.033391    0.772389
     20          7           0       -3.542366    1.642111    0.324386
     21          6           0       -2.409222    0.957580   -0.050889
     22          6           0       -2.805524   -0.464987   -0.400096
     23          6           0       -4.291295   -0.473985   -0.119932
     24          6           0       -4.668811    0.812694    0.315690
     25          6           0       -5.981156    1.120441    0.678061
     26          6           0       -6.936339    0.102035    0.580738
     27          6           0       -6.561702   -1.164760    0.129286
     28          6           0       -5.236239   -1.479998   -0.215718
     29         16           0        7.845678   -2.554401    0.343489
     30         16           0       -7.804638   -2.449360    0.029479
     31          8           0        9.121848   -2.027702   -0.237550
     32          8           0        7.785888   -2.576758    1.843005
     33          8           0        7.258171   -3.754893   -0.336782
     34          8           0       -8.964897   -2.053757    0.844121
     35          8           0       -8.215156   -2.293364   -1.578798
     36          8           0       -7.168427   -3.777586    0.167805
     37          1           0        6.432344    2.161908   -0.480202
     38          1           0        5.040594   -2.644707   -0.339974
     39          1           0        8.117795    0.314401   -0.037391
     40          1           0        2.349224   -1.127194    0.342973
     41          1           0        2.479690   -0.995168   -1.419284
     42          1           0        4.015799    3.495692   -1.086309
     43          1           0        4.478840    3.288668    0.614686
     44          1           0        2.364779    4.733794    0.206576
     45          1           0        2.144594    3.402132    1.368668
     46          1           0        1.510802    3.273077   -1.628942
     47          1           0       -0.735006    3.023107    1.428446
     48          1           0        0.035005   -0.243675   -0.400448
     49          1           0       -2.475782    3.872981   -0.939953
     50          1           0       -2.242505    4.772290    0.574549
     51          1           0       -4.449326    3.518107    0.476092
     52          1           0       -3.456529    3.056260    1.876499
     53          1           0       -2.254891   -1.196079    0.215364
     54          1           0       -2.575804   -0.695481   -1.453215
     55          1           0       -6.265072    2.109565    1.038109
     56          1           0       -7.973222    0.282246    0.865099
     57          1           0       -4.978695   -2.491714   -0.531928
     58          1           0       -8.326389   -3.208300   -1.902025
 ---------------------------------------------------------------------

 The electronic state is 1-A.
 Alpha  occ. eigenvalues --  -89.14946 -89.01766 -19.21104 -19.19691 -19.16682
 Alpha  occ. eigenvalues --  -19.16567 -19.02847 -19.02790 -19.02739 -14.45826
 Alpha  occ. eigenvalues --  -14.44593 -10.30967 -10.30757 -10.29980 -10.29918
 Alpha  occ. eigenvalues --  -10.29536 -10.29493 -10.29159 -10.27014 -10.26538
 Alpha  occ. eigenvalues --  -10.26482 -10.25936 -10.25778 -10.25588 -10.25418
 Alpha  occ. eigenvalues --  -10.25410 -10.25390 -10.25356 -10.24918 -10.24804
 Alpha  occ. eigenvalues --  -10.24549 -10.22251 -10.21528 -10.19558 -10.19453
 Alpha  occ. eigenvalues --  -10.18985  -8.18107  -8.04601  -6.14531  -6.14376
 Alpha  occ. eigenvalues --   -6.14235  -6.00932  -6.00905  -6.00896  -1.15782
 Alpha  occ. eigenvalues --   -1.09449  -1.06065  -1.05984  -1.05255  -1.03080
 Alpha  occ. eigenvalues --   -1.01661  -0.92528  -0.89729  -0.89017  -0.88405
 Alpha  occ. eigenvalues --   -0.88135  -0.87726  -0.86800  -0.85215  -0.82488
 Alpha  occ. eigenvalues --   -0.81572  -0.80065  -0.77624  -0.76987  -0.74923
 Alpha  occ. eigenvalues --   -0.74368  -0.73301  -0.71281  -0.68475  -0.67972
 Alpha  occ. eigenvalues --   -0.66442  -0.65213  -0.64679  -0.62448  -0.61496
 Alpha  occ. eigenvalues --   -0.59925  -0.58691  -0.58023  -0.57661  -0.57074
 Alpha  occ. eigenvalues --   -0.56011  -0.54878  -0.54447  -0.54120  -0.53212
 Alpha  occ. eigenvalues --   -0.52538  -0.52456  -0.51304  -0.50868  -0.50127
 Alpha  occ. eigenvalues --   -0.49684  -0.49226  -0.48730  -0.48374  -0.47750
 Alpha  occ. eigenvalues --   -0.47715  -0.46747  -0.46333  -0.45823  -0.45690
 Alpha  occ. eigenvalues --   -0.45083  -0.44776  -0.44551  -0.44304  -0.43940
 Alpha  occ. eigenvalues --   -0.43239  -0.43003  -0.42312  -0.41603  -0.40643
 Alpha  occ. eigenvalues --   -0.39996  -0.39964  -0.39394  -0.38853  -0.38272
 Alpha  occ. eigenvalues --   -0.38005  -0.36886  -0.36388  -0.36179  -0.35896
 Alpha  occ. eigenvalues --   -0.34834  -0.34646  -0.34149  -0.34071  -0.32094
 Alpha  occ. eigenvalues --   -0.31381  -0.31336  -0.30585  -0.26988  -0.26508
 Alpha  occ. eigenvalues --   -0.23959  -0.23700  -0.23527  -0.20908  -0.20644
 Alpha  occ. eigenvalues --   -0.19684  -0.16533
 Alpha virt. eigenvalues --   -0.13656  -0.07446  -0.07169  -0.04656  -0.02323
 Alpha virt. eigenvalues --   -0.01103   0.00013   0.00279   0.00860   0.01000
 Alpha virt. eigenvalues --    0.02204   0.03040   0.03884   0.03960   0.04944

 Mulliken atomic charges:
              1
     1  C   -0.004972
     2  C    0.171108
     3  C   -0.114233
     4  C    0.059671
     5  C   -0.248425
     6  C    0.101605
     7  C    0.155349
     8  C    0.091544
     9  N   -0.253956
    10  C    0.089919
    11  C    0.049298
    12  C    0.156445
    13  C   -0.109487
    14  O   -0.320427
    15  C    0.129901
    16  C   -0.099084
    17  C    0.009637
    18  C    0.038611
    19  C    0.095589
    20  N   -0.314401
    21  C    0.082527
    22  C    0.186256
    23  C   -0.155351
    24  C    0.268137
    25  C   -0.010322
    26  C    0.109370
    27  C   -0.251940
    28  C    0.049556
    29  S    0.986438
    30  S    0.995133
    31  O   -0.519898
    32  O   -0.518285
    33  O   -0.523523
    34  O   -0.410309
    35  O   -0.325188
    36  O   -0.438260
    37  H   -0.018153
    38  H   -0.019972
    39  H    0.002539
    40  H    0.082954
    41  H    0.078764
    42  H    0.057222
    43  H    0.059092
    44  H    0.030728
    45  H    0.025688
    46  H    0.025458
    47  H    0.012642
    48  H   -0.026419
    49  H    0.031870
    50  H    0.026718
    51  H    0.048021
    52  H    0.046106
    53  H    0.079692
    54  H    0.079249
    55  H   -0.010704
    56  H    0.005159
    57  H   -0.015017
    58  H    0.190332
 Sum of Mulliken atomic charges =   0.00000

 Dipole moment (field-independent basis, Debye):
    X=            -22.5861    Y=             17.0076    Z=             -3.0621  Tot=             28.4388
 Quadrupole moment (field-independent basis, Debye-Ang):
   XX=           -433.8880   YY=           -229.7212   ZZ=           -223.7180
   XY=             75.5143   XZ=             -4.3946   YZ=             17.7459

 Normal termination of Gaussian 09 at Tue Mar 17 15:57:31 2015.
