 Gaussian 09, Revision B.01,
 Gaussian 09:  EM64L-G09RevB.01 12-Aug-2010

 ------------------------------------------------------
 # opt=modredundant B3LYP/cc-pVDZ Geom=PrintInputOrient
 ------------------------------------------------------

 -------------------------------
 CY3 Dihedral Scan at MP2/6-31G*
 -------------------------------
 Symbolic Z-matrix:
 Charge =  0 Multiplicity = 1

 SCF Done:  E(RB3LYP) =  -2398.26711824     A.U. after   22 cycles
 SCF Done:  E(RB3LYP) =  -2398.26712606     A.U. after    8 cycles
 Optimization completed.
    -- Stationary point found.
 SCF Done:  E(RB3LYP) =  -2398.26220763     A.U. after   14 cycles
 SCF Done:  E(RB3LYP) =  -2398.26501812     A.U. after   12 cycles
 SCF Done:  E(RB3LYP) =  -2398.26554612     A.U. after   12 cycles
 SCF Done:  E(RB3LYP) =  -2398.26560417     A.U. after   11 cycles
 SCF Done:  E(RB3LYP) =  -2398.26561352     A.U. after   11 cycles
 SCF Done:  E(RB3LYP) =  -2398.26561510     A.U. after    8 cycles
 SCF Done:  E(RB3LYP) =  -2398.26561619     A.U. after   11 cycles
 SCF Done:  E(RB3LYP) =  -2398.26561763     A.U. after   11 cycles
 Optimization completed.
    -- Stationary point found.
 SCF Done:  E(RB3LYP) =  -2398.26120038     A.U. after   12 cycles
 SCF Done:  E(RB3LYP) =  -2398.26120498     A.U. after   11 cycles
 SCF Done:  E(RB3LYP) =  -2398.26120567     A.U. after    8 cycles
 SCF Done:  E(RB3LYP) =  -2398.26120592     A.U. after    8 cycles
 SCF Done:  E(RB3LYP) =  -2398.26120609     A.U. after    7 cycles
 SCF Done:  E(RB3LYP) =  -2398.26120631     A.U. after    8 cycles
 SCF Done:  E(RB3LYP) =  -2398.26120654     A.U. after    8 cycles
 SCF Done:  E(RB3LYP) =  -2398.26120672     A.U. after    8 cycles
 SCF Done:  E(RB3LYP) =  -2398.26120684     A.U. after    8 cycles
 SCF Done:  E(RB3LYP) =  -2398.26120686     A.U. after    8 cycles
 Optimization completed.
    -- Stationary point found.

                         Standard orientation:
 ---------------------------------------------------------------------
 Center     Atomic      Atomic             Coordinates (Angstroms)
 Number     Number       Type             X           Y           Z
 ---------------------------------------------------------------------
      1          6           0       -5.965857    1.083944   -0.526427
      2          6           0       -4.647827    0.788826   -0.170429
      3          6           0       -4.225393   -0.504081    0.188104
      4          6           0       -5.134076   -1.549067    0.197548
      5          6           0       -6.469809   -1.271352   -0.137764
      6          6           0       -6.873468    0.023263   -0.505576
      7          6           0       -2.745426   -0.445383    0.483484
      8          6           0       -2.417565    1.013790    0.273258
      9          7           0       -3.528598    1.653901   -0.111725
     10          6           0       -3.581203    3.080013   -0.471653
     11          6           0       -2.185356    3.638228   -0.757290
     12          6           0       -1.230438    3.201501    0.361022
     13          6           0       -1.176743    1.687312    0.423736
     14          8           0        0.036260    3.842676    0.309088
     15          6           0        1.139147    3.102574   -0.217569
     16          6           0        1.247413    1.721784    0.402829
     17          6           0        0.021658    1.032554    0.605027
     18          6           0        2.391010    3.928403    0.066391
     19          6           0        3.651981    3.160400   -0.318651
     20          7           0        3.654521    1.836232    0.301758
     21          6           0        2.486491    1.202112    0.697420
     22          6           0        2.860187   -0.200369    1.137312
     23          6           0        4.229201   -0.375434    0.520990
     24          6           0        4.675775    0.895820    0.103734
     25          6           0        5.937379    1.092329   -0.459084
     26          6           0        6.767357   -0.027360   -0.595519
     27          6           0        6.326364   -1.279698   -0.165208
     28          6           0        5.054560   -1.478489    0.400411
     29         16           0       -7.712198   -2.627987   -0.050889
     30         16           0        7.403087   -2.693960   -0.377368
     31          8           0       -8.227814   -2.451409    1.347173
     32          8           0       -8.679626   -2.277032   -1.138974
     33          8           0       -6.884446   -3.858016   -0.274913
     34          8           0        8.469106   -2.344698   -1.330708
     35          8           0        8.061604   -2.748360    1.153406
     36          8           0        6.596715   -3.924919   -0.526248
     37          1           0       -6.282006    2.090004   -0.808679
     38          1           0       -4.865602   -2.579368    0.440078
     39          1           0       -7.917494    0.168470   -0.788291
     40          1           0       -2.152208   -1.083571   -0.192551
     41          1           0       -2.497238   -0.752801    1.513416
     42          1           0       -4.065709    3.618822    0.359995
     43          1           0       -4.235238    3.174233   -1.349480
     44          1           0       -2.240381    4.735567   -0.801303
     45          1           0       -1.818330    3.277495   -1.732213
     46          1           0       -1.663974    3.547503    1.318851
     47          1           0        1.010016    2.982977   -1.313669
     48          1           0        0.030425   -0.039322    0.822001
     49          1           0        2.402748    4.167879    1.141681
     50          1           0        2.356694    4.878308   -0.485785
     51          1           0        4.547363    3.707824    0.012697
     52          1           0        3.725748    3.040464   -1.416098
     53          1           0        2.121848   -0.947186    0.811240
     54          1           0        2.917263   -0.262104    2.239437
     55          1           0        6.272791    2.072519   -0.798852
     56          1           0        7.754846    0.063070   -1.048602
     57          1           0        4.739913   -2.477019    0.706765
     58          1           0        8.136257   -3.699209    1.364074
 ---------------------------------------------------------------------

 The electronic state is 1-A.
 Alpha  occ. eigenvalues --  -89.14796 -89.01927 -19.20978 -19.19788 -19.16515
 Alpha  occ. eigenvalues --  -19.16429 -19.02994 -19.02965 -19.02915 -14.46276
 Alpha  occ. eigenvalues --  -14.43967 -10.31200 -10.30606 -10.30121 -10.29960
 Alpha  occ. eigenvalues --  -10.29449 -10.29196 -10.29172 -10.26803 -10.26583
 Alpha  occ. eigenvalues --  -10.26382 -10.25729 -10.25662 -10.25659 -10.25623
 Alpha  occ. eigenvalues --  -10.25535 -10.25408 -10.25152 -10.25022 -10.24867
 Alpha  occ. eigenvalues --  -10.24833 -10.22423 -10.21680 -10.19783 -10.19598
 Alpha  occ. eigenvalues --  -10.19142  -8.17959  -8.04763  -6.14383  -6.14227
 Alpha  occ. eigenvalues --   -6.14087  -6.01094  -6.01065  -6.01057  -1.15631
 Alpha  occ. eigenvalues --   -1.09575  -1.06411  -1.05542  -1.05122  -1.02917
 Alpha  occ. eigenvalues --   -1.01836  -0.92294  -0.89873  -0.89119  -0.88575
 Alpha  occ. eigenvalues --   -0.88307  -0.87595  -0.86860  -0.85379  -0.82373
 Alpha  occ. eigenvalues --   -0.81367  -0.80160  -0.77649  -0.77084  -0.75071
 Alpha  occ. eigenvalues --   -0.74386  -0.73277  -0.71208  -0.68536  -0.67940
 Alpha  occ. eigenvalues --   -0.66497  -0.65279  -0.64366  -0.62590  -0.61784
 Alpha  occ. eigenvalues --   -0.59816  -0.58560  -0.57945  -0.57764  -0.57151
 Alpha  occ. eigenvalues --   -0.55987  -0.55302  -0.54556  -0.54097  -0.53002
 Alpha  occ. eigenvalues --   -0.52600  -0.52479  -0.51382  -0.50473  -0.50061
 Alpha  occ. eigenvalues --   -0.49737  -0.49185  -0.48655  -0.48462  -0.47888
 Alpha  occ. eigenvalues --   -0.47598  -0.46767  -0.46266  -0.46045  -0.45703
 Alpha  occ. eigenvalues --   -0.45271  -0.44795  -0.44510  -0.44240  -0.44063
 Alpha  occ. eigenvalues --   -0.43353  -0.42727  -0.42354  -0.41668  -0.40582
 Alpha  occ. eigenvalues --   -0.40202  -0.39918  -0.39262  -0.38789  -0.38534
 Alpha  occ. eigenvalues --   -0.37954  -0.36787  -0.36518  -0.36068  -0.36014
 Alpha  occ. eigenvalues --   -0.34969  -0.34846  -0.34046  -0.33981  -0.31898
 Alpha  occ. eigenvalues --   -0.31446  -0.31155  -0.30476  -0.27224  -0.26924
 Alpha  occ. eigenvalues --   -0.24224  -0.23861  -0.23719  -0.21074  -0.20808
 Alpha  occ. eigenvalues --   -0.19872  -0.16691
 Alpha virt. eigenvalues --   -0.13857  -0.07369  -0.06978  -0.04793  -0.02274
 Alpha virt. eigenvalues --   -0.00735  -0.00035   0.00381   0.00806   0.00904
 Alpha virt. eigenvalues --    0.02016   0.03073   0.03910   0.04091   0.04861

 Mulliken atomic charges:
              1
     1  C   -0.008529
     2  C    0.222647
     3  C   -0.129137
     4  C    0.041506
     5  C   -0.243088
     6  C    0.113023
     7  C    0.177977
     8  C    0.084346
     9  N   -0.263404
    10  C    0.088265
    11  C    0.047036
    12  C    0.155738
    13  C   -0.122730
    14  O   -0.318847
    15  C    0.136664
    16  C   -0.072168
    17  C    0.016692
    18  C    0.039938
    19  C    0.094711
    20  N   -0.303538
    21  C    0.050468
    22  C    0.165226
    23  C   -0.134911
    24  C    0.242834
    25  C    0.004407
    26  C    0.105020
    27  C   -0.250498
    28  C    0.052769
    29  S    0.986905
    30  S    0.993800
    31  O   -0.515805
    32  O   -0.519209
    33  O   -0.523657
    34  O   -0.411326
    35  O   -0.325541
    36  O   -0.437961
    37  H   -0.027062
    38  H   -0.023700
    39  H   -0.005534
    40  H    0.083130
    41  H    0.082833
    42  H    0.059277
    43  H    0.061964
    44  H    0.032086
    45  H    0.025311
    46  H    0.026938
    47  H    0.013011
    48  H   -0.025855
    49  H    0.033982
    50  H    0.027473
    51  H    0.047523
    52  H    0.038873
    53  H    0.064198
    54  H    0.077905
    55  H   -0.013302
    56  H    0.005145
    57  H   -0.013918
    58  H    0.190099
 Sum of Mulliken atomic charges =   0.00000

 Dipole moment (field-independent basis, Debye):
    X=             22.2939    Y=             17.5977    Z=              1.7054  Tot=             28.4535
 Quadrupole moment (field-independent basis, Debye-Ang):
   XX=           -419.3582   YY=           -230.7274   ZZ=           -224.2255
   XY=            -76.5237   XZ=             17.4878   YZ=            -17.8438

 Normal termination of Gaussian 09 at Fri Mar 20 03:38:08 2015.
