 Gaussian 09, Revision B.01,
 Gaussian 09:  EM64L-G09RevB.01 12-Aug-2010

 ------------------------------------------------------
 # opt=modredundant B3LYP/cc-pVDZ Geom=PrintInputOrient
 ------------------------------------------------------

 -------------------------------
 CY3 Dihedral Scan at MP2/6-31G*
 -------------------------------
 Symbolic Z-matrix:
 Charge =  0 Multiplicity = 1

 SCF Done:  E(RB3LYP) =  -2169.39489223     A.U. after   31 cycles
 SCF Done:  E(RB3LYP) =  -2169.39489903     A.U. after    8 cycles
 SCF Done:  E(RB3LYP) =  -2169.39489944     A.U. after    8 cycles
 Optimization completed.
    -- Stationary point found.
 SCF Done:  E(RB3LYP) =  -2169.39331037     A.U. after   17 cycles
 SCF Done:  E(RB3LYP) =  -2169.39335343     A.U. after   11 cycles
 SCF Done:  E(RB3LYP) =  -2169.39375375     A.U. after   16 cycles
 SCF Done:  E(RB3LYP) =  -2169.39378109     A.U. after   11 cycles
 SCF Done:  E(RB3LYP) =  -2169.39378962     A.U. after   10 cycles
 SCF Done:  E(RB3LYP) =  -2169.39379334     A.U. after   10 cycles
 SCF Done:  E(RB3LYP) =  -2169.39379716     A.U. after   10 cycles
 SCF Done:  E(RB3LYP) =  -2169.39381571     A.U. after    7 cycles
 SCF Done:  E(RB3LYP) =  -2169.39381573     A.U. after    6 cycles
 Optimization completed.
    -- Stationary point found.
 SCF Done:  E(RB3LYP) =  -2169.38899235     A.U. after   17 cycles
 SCF Done:  E(RB3LYP) =  -2169.39028194     A.U. after   16 cycles
 SCF Done:  E(RB3LYP) =  -2169.39032479     A.U. after   15 cycles
 SCF Done:  E(RB3LYP) =  -2169.39032827     A.U. after   11 cycles
 SCF Done:  E(RB3LYP) =  -2169.39033133     A.U. after   10 cycles
 SCF Done:  E(RB3LYP) =  -2169.39033145     A.U. after    7 cycles
 SCF Done:  E(RB3LYP) =  -2169.39033148     A.U. after    7 cycles
 SCF Done:  E(RB3LYP) =  -2169.39033150     A.U. after    6 cycles
 Optimization completed.
    -- Stationary point found.

                         Standard orientation:
 ---------------------------------------------------------------------
 Center     Atomic      Atomic             Coordinates (Angstroms)
 Number     Number       Type             X           Y           Z
 ---------------------------------------------------------------------
      1          6           0        6.056824    1.621059   -0.316955
      2          6           0        4.682825    1.409900   -0.191689
      3          6           0        4.140331    0.121977   -0.019316
      4          6           0        4.969149   -0.985096    0.035732
      5          6           0        6.352268   -0.769619   -0.075271
      6          6           0        6.895951    0.502656   -0.259288
      7          6           0        2.639068    0.245975    0.062357
      8          6           0        2.412858    1.741557   -0.076570
      9          7           0        3.637277    2.349090   -0.219144
     10          6           0        3.806027    3.782582   -0.381017
     11          6           0        1.208713    2.414196   -0.067513
     12          6           0       -1.264378    2.410347    0.080444
     13          6           0       -0.041401    1.768755    0.090478
     14          6           0       -4.005755    3.709550    0.511204
     15          7           0       -3.705334    2.326320    0.149308
     16          6           0       -2.497822    1.734549    0.225169
     17          6           0       -2.699106    0.232728    0.210286
     18          6           0       -4.194755    0.082922    0.101740
     19          6           0       -4.753289    1.370571    0.085117
     20          6           0       -6.131157    1.595803    0.037067
     21          6           0       -6.951174    0.466612   -0.014112
     22          6           0       -6.405578   -0.827862   -0.014037
     23          6           0       -5.018121   -1.030479    0.065227
     24         16           0       -7.515801   -2.290504   -0.148706
     25         16           0        7.452130   -2.182160   -0.022452
     26          8           0        8.756712   -1.788681   -0.578357
     27          8           0        7.609385   -2.331445    1.629906
     28          8           0        6.737546   -3.392685   -0.482203
     29          8           0       -7.637258   -2.426867   -1.637969
     30          8           0       -6.729064   -3.373672    0.527802
     31          8           0       -8.759326   -1.841896    0.556277
     32          1           0        6.483349    2.613384   -0.463801
     33          1           0        4.578360   -1.997188    0.148972
     34          1           0        7.975394    0.611971   -0.365531
     35          1           0        2.237879   -0.130859    1.017505
     36          1           0        2.129148   -0.309038   -0.742224
     37          1           0        4.872463    4.024568   -0.439121
     38          1           0        3.314664    4.130153   -1.304151
     39          1           0        3.371241    4.320711    0.476391
     40          1           0        1.209322    3.499460   -0.188085
     41          1           0       -1.278377    3.495897   -0.043640
     42          1           0       -0.035078    0.682382    0.222819
     43          1           0       -4.600024    4.188071   -0.280783
     44          1           0       -4.590783    3.710840    1.442865
     45          1           0       -3.081447    4.276814    0.660529
     46          1           0       -2.301951   -0.211451    1.140217
     47          1           0       -2.154040   -0.232026   -0.626278
     48          1           0       -6.557485    2.600589    0.040179
     49          1           0       -8.038376    0.558890   -0.037557
     50          1           0       -4.646671   -2.056356    0.108574
     51          1           0        7.574714   -3.292178    1.802542
 ---------------------------------------------------------------------

 The electronic state is 1-A.
 Alpha  occ. eigenvalues --  -89.15043 -89.01645 -19.21195 -19.16766 -19.16664
 Alpha  occ. eigenvalues --  -19.02720 -19.02693 -19.02612 -14.45666 -14.45215
 Alpha  occ. eigenvalues --  -10.31126 -10.30994 -10.29766 -10.29321 -10.28518
 Alpha  occ. eigenvalues --  -10.27065 -10.26979 -10.26675 -10.26057 -10.25913
 Alpha  occ. eigenvalues --  -10.25720 -10.25574 -10.25078 -10.25061 -10.25042
 Alpha  occ. eigenvalues --  -10.24691 -10.21920 -10.21218 -10.19415 -10.19209
 Alpha  occ. eigenvalues --  -10.18751  -8.18204  -8.04481  -6.14627  -6.14472
 Alpha  occ. eigenvalues --   -6.14333  -6.00810  -6.00785  -6.00776  -1.15885
 Alpha  occ. eigenvalues --   -1.06047  -1.05395  -1.05352  -1.03178  -1.01541
 Alpha  occ. eigenvalues --   -0.92391  -0.88858  -0.88285  -0.88014  -0.87648
 Alpha  occ. eigenvalues --   -0.86875  -0.84764  -0.82724  -0.80976  -0.78232
 Alpha  occ. eigenvalues --   -0.77149  -0.76536  -0.74864  -0.73554  -0.71641
 Alpha  occ. eigenvalues --   -0.68305  -0.66456  -0.65076  -0.63084  -0.62249
 Alpha  occ. eigenvalues --   -0.60856  -0.60027  -0.58725  -0.57299  -0.56698
 Alpha  occ. eigenvalues --   -0.54737  -0.54523  -0.54233  -0.54000  -0.53143
 Alpha  occ. eigenvalues --   -0.52083  -0.51482  -0.50978  -0.49851  -0.49143
 Alpha  occ. eigenvalues --   -0.48606  -0.48349  -0.48305  -0.47523  -0.47182
 Alpha  occ. eigenvalues --   -0.46586  -0.46087  -0.45553  -0.45293  -0.44534
 Alpha  occ. eigenvalues --   -0.43991  -0.43568  -0.43379  -0.42064  -0.41510
 Alpha  occ. eigenvalues --   -0.40988  -0.40722  -0.40197  -0.39152  -0.38459
 Alpha  occ. eigenvalues --   -0.38172  -0.36671  -0.36256  -0.36189  -0.35327
 Alpha  occ. eigenvalues --   -0.34604  -0.34246  -0.34181  -0.32210  -0.31481
 Alpha  occ. eigenvalues --   -0.31202  -0.27318  -0.26549  -0.24213  -0.23583
 Alpha  occ. eigenvalues --   -0.23481  -0.20790  -0.20529  -0.19568  -0.16417
 Alpha virt. eigenvalues --   -0.13964  -0.07504  -0.07337  -0.03978  -0.01857
 Alpha virt. eigenvalues --   -0.00376  -0.00148   0.00532   0.01095   0.01650
 Alpha virt. eigenvalues --    0.02279   0.03223   0.03844   0.04484   0.05104

 Mulliken atomic charges:
              1
     1  C   -0.003019
     2  C    0.246371
     3  C   -0.139939
     4  C    0.052344
     5  C   -0.250257
     6  C    0.111454
     7  C    0.158440
     8  C    0.066957
     9  N   -0.299676
    10  C    0.075877
    11  C   -0.060453
    12  C   -0.025418
    13  C    0.062600
    14  C    0.072112
    15  N   -0.246000
    16  C    0.040166
    17  C    0.150974
    18  C   -0.109359
    19  C    0.209032
    20  C   -0.007562
    21  C    0.110333
    22  C   -0.242479
    23  C    0.039846
    24  S    0.985931
    25  S    0.995438
    26  O   -0.409778
    27  O   -0.324874
    28  O   -0.437032
    29  O   -0.516827
    30  O   -0.525438
    31  O   -0.520494
    32  H   -0.005494
    33  H   -0.014414
    34  H    0.005023
    35  H    0.080204
    36  H    0.083210
    37  H    0.055373
    38  H    0.059510
    39  H    0.058526
    40  H   -0.031096
    41  H   -0.020346
    42  H   -0.007884
    43  H    0.068098
    44  H    0.073790
    45  H    0.051052
    46  H    0.080717
    47  H    0.078930
    48  H   -0.032405
    49  H   -0.006829
    50  H   -0.026311
    51  H    0.191078
 Sum of Mulliken atomic charges =   0.00000

 Dipole moment (field-independent basis, Debye):
    X=             22.1580    Y=             19.0577    Z=              2.7811  Tot=             29.3583
 Quadrupole moment (field-independent basis, Debye-Ang):
   XX=           -385.1120   YY=           -182.3298   ZZ=           -200.4770
   XY=            -66.8734   XZ=              1.6067   YZ=             -9.5232

 Normal termination of Gaussian 09 at Wed Mar 18 08:56:48 2015.
