 Gaussian 09, Revision B.01,
 Gaussian 09:  EM64L-G09RevB.01 12-Aug-2010

 ------------------------------------------------------
 # opt=modredundant B3LYP/cc-pVDZ Geom=PrintInputOrient
 ------------------------------------------------------

 -------------------------------
 CY3 Dihedral Scan at MP2/6-31G*
 -------------------------------
 Symbolic Z-matrix:
 Charge =  0 Multiplicity = 1

 SCF Done:  E(RB3LYP) =  -2169.39489223     A.U. after   31 cycles
 SCF Done:  E(RB3LYP) =  -2169.39489903     A.U. after    8 cycles
 SCF Done:  E(RB3LYP) =  -2169.39489944     A.U. after    8 cycles
 Optimization completed.
    -- Stationary point found.
 SCF Done:  E(RB3LYP) =  -2169.39229059     A.U. after   14 cycles
 SCF Done:  E(RB3LYP) =  -2169.39231414     A.U. after    8 cycles
 SCF Done:  E(RB3LYP) =  -2169.39272767     A.U. after   11 cycles
 SCF Done:  E(RB3LYP) =  -2169.39286166     A.U. after   11 cycles
 SCF Done:  E(RB3LYP) =  -2169.39294730     A.U. after   11 cycles
 SCF Done:  E(RB3LYP) =  -2169.39300033     A.U. after   11 cycles
 SCF Done:  E(RB3LYP) =  -2169.39304758     A.U. after   10 cycles
 Optimization completed.
    -- Stationary point found.
 SCF Done:  E(RB3LYP) =  -2169.38720450     A.U. after   10 cycles
 SCF Done:  E(RB3LYP) =  -2169.38720550     A.U. after    8 cycles
 SCF Done:  E(RB3LYP) =  -2169.38720614     A.U. after    8 cycles
 SCF Done:  E(RB3LYP) =  -2169.38720740     A.U. after    8 cycles
 SCF Done:  E(RB3LYP) =  -2169.38720986     A.U. after   10 cycles
 SCF Done:  E(RB3LYP) =  -2169.38721346     A.U. after   11 cycles
 SCF Done:  E(RB3LYP) =  -2169.38721555     A.U. after   10 cycles
 SCF Done:  E(RB3LYP) =  -2169.38721599     A.U. after    8 cycles
 SCF Done:  E(RB3LYP) =  -2169.38721605     A.U. after    7 cycles
 SCF Done:  E(RB3LYP) =  -2169.38721607     A.U. after    7 cycles
 Optimization completed.
    -- Stationary point found.

                         Standard orientation:
 ---------------------------------------------------------------------
 Center     Atomic      Atomic             Coordinates (Angstroms)
 Number     Number       Type             X           Y           Z
 ---------------------------------------------------------------------
      1          6           0       -5.976399    1.602742    0.259559
      2          6           0       -4.703919    1.438110   -0.291663
      3          6           0       -4.146651    0.152778   -0.457263
      4          6           0       -4.929926   -0.977444   -0.300417
      5          6           0       -6.266372   -0.793157    0.091591
      6          6           0       -6.778919    0.464953    0.409376
      7          6           0       -2.649412    0.302357   -0.600961
      8          6           0       -2.438207    1.788707   -0.346312
      9          7           0       -3.673208    2.391791   -0.419714
     10          6           0       -3.892005    3.816591   -0.241973
     11          6           0       -1.248186    2.451503   -0.148127
     12          6           0        1.221067    2.436788    0.060392
     13          6           0        0.011621    1.801111   -0.130380
     14          6           0        3.946470    3.732773    0.456199
     15          7           0        3.662745    2.319537    0.241820
     16          6           0        2.459447    1.751728    0.070267
     17          6           0        2.660958    0.261463   -0.115618
     18          6           0        4.156209    0.097191   -0.026460
     19          6           0        4.713084    1.367559    0.188386
     20          6           0        6.088740    1.581471    0.302490
     21          6           0        6.908964    0.455816    0.200648
     22          6           0        6.365422   -0.824182    0.001436
     23          6           0        4.979595   -1.011906   -0.128749
     24         16           0        7.475302   -2.292688   -0.059482
     25         16           0       -7.306796   -2.235248    0.316035
     26          8           0       -8.419570   -1.878816    1.209206
     27          8           0       -7.921144   -2.388598   -1.223838
     28          8           0       -6.459239   -3.426487    0.543377
     29          8           0        7.585298   -2.632178    1.397854
     30          8           0        6.693380   -3.270895   -0.884823
     31          8           0        8.723724   -1.752419   -0.686749
     32          1           0       -6.364735    2.585340    0.530102
     33          1           0       -4.526762   -1.985126   -0.410657
     34          1           0       -7.790745    0.546027    0.807010
     35          1           0       -2.283827    0.036151   -1.608570
     36          1           0       -2.105561   -0.326227    0.119440
     37          1           0       -4.903355    4.069563   -0.584850
     38          1           0       -3.782173    4.121315    0.813694
     39          1           0       -3.173268    4.380340   -0.852911
     40          1           0       -1.266075    3.531530    0.012974
     41          1           0        1.216736    3.519394    0.202081
     42          1           0        0.020363    0.717340   -0.280791
     43          1           0        4.518980    3.848585    1.387996
     44          1           0        4.551359    4.116332   -0.379120
     45          1           0        3.020279    4.309828    0.528977
     46          1           0        2.252515   -0.066506   -1.085968
     47          1           0        2.123490   -0.300360    0.666574
     48          1           0        6.514365    2.575235    0.453152
     49          1           0        7.995424    0.543219    0.255728
     50          1           0        4.609831   -2.021462   -0.319397
     51          1           0       -7.758791   -3.319426   -1.469786
 ---------------------------------------------------------------------

 The electronic state is 1-A.
 Alpha  occ. eigenvalues --  -89.15061 -89.01694 -19.21180 -19.16826 -19.16664
 Alpha  occ. eigenvalues --  -19.02763 -19.02728 -19.02661 -14.46091 -14.44772
 Alpha  occ. eigenvalues --  -10.31165 -10.31084 -10.29542 -10.29031 -10.28698
 Alpha  occ. eigenvalues --  -10.27040 -10.26956 -10.26671 -10.25980 -10.25741
 Alpha  occ. eigenvalues --  -10.25610 -10.25556 -10.25264 -10.25191 -10.25128
 Alpha  occ. eigenvalues --  -10.24714 -10.22036 -10.21364 -10.19503 -10.19312
 Alpha  occ. eigenvalues --  -10.18841  -8.18217  -8.04529  -6.14640  -6.14489
 Alpha  occ. eigenvalues --   -6.14342  -6.00860  -6.00833  -6.00824  -1.15935
 Alpha  occ. eigenvalues --   -1.05776  -1.05759  -1.05354  -1.03248  -1.01591
 Alpha  occ. eigenvalues --   -0.92236  -0.88856  -0.88332  -0.88066  -0.87849
 Alpha  occ. eigenvalues --   -0.86781  -0.84761  -0.82661  -0.80962  -0.78200
 Alpha  occ. eigenvalues --   -0.77263  -0.76367  -0.74960  -0.73589  -0.71576
 Alpha  occ. eigenvalues --   -0.68331  -0.66269  -0.65075  -0.63109  -0.62411
 Alpha  occ. eigenvalues --   -0.60848  -0.60146  -0.58571  -0.57258  -0.56893
 Alpha  occ. eigenvalues --   -0.54903  -0.54467  -0.54204  -0.53865  -0.53420
 Alpha  occ. eigenvalues --   -0.52185  -0.51249  -0.50683  -0.49693  -0.49250
 Alpha  occ. eigenvalues --   -0.48631  -0.48547  -0.48382  -0.47412  -0.47017
 Alpha  occ. eigenvalues --   -0.46763  -0.46122  -0.45464  -0.45357  -0.44529
 Alpha  occ. eigenvalues --   -0.44088  -0.43409  -0.43214  -0.42132  -0.41421
 Alpha  occ. eigenvalues --   -0.41092  -0.40660  -0.40295  -0.39077  -0.38312
 Alpha  occ. eigenvalues --   -0.38265  -0.36711  -0.36294  -0.36176  -0.35339
 Alpha  occ. eigenvalues --   -0.34697  -0.34317  -0.34159  -0.32432  -0.31255
 Alpha  occ. eigenvalues --   -0.31087  -0.27419  -0.26659  -0.24354  -0.23628
 Alpha  occ. eigenvalues --   -0.23529  -0.20840  -0.20573  -0.19635  -0.16461
 Alpha virt. eigenvalues --   -0.13769  -0.07771  -0.07179  -0.04026  -0.01943
 Alpha virt. eigenvalues --   -0.00244  -0.00005   0.00501   0.01114   0.01510
 Alpha virt. eigenvalues --    0.02299   0.03222   0.03920   0.04582   0.04918

 Mulliken atomic charges:
              1
     1  C    0.016445
     2  C    0.200168
     3  C   -0.124865
     4  C    0.056518
     5  C   -0.251265
     6  C    0.103407
     7  C    0.137172
     8  C    0.065813
     9  N   -0.289846
    10  C    0.076717
    11  C   -0.041093
    12  C   -0.037907
    13  C    0.062666
    14  C    0.072886
    15  N   -0.251030
    16  C    0.058421
    17  C    0.149278
    18  C   -0.111334
    19  C    0.214150
    20  C   -0.008715
    21  C    0.110750
    22  C   -0.242761
    23  C    0.040093
    24  S    0.986182
    25  S    0.999705
    26  O   -0.408541
    27  O   -0.322823
    28  O   -0.439226
    29  O   -0.517029
    30  O   -0.525258
    31  O   -0.520424
    32  H   -0.009579
    33  H   -0.010478
    34  H    0.007707
    35  H    0.079902
    36  H    0.075838
    37  H    0.058597
    38  H    0.051059
    39  H    0.059567
    40  H   -0.029890
    41  H   -0.022687
    42  H   -0.008766
    43  H    0.073356
    44  H    0.071853
    45  H    0.054446
    46  H    0.081726
    47  H    0.082577
    48  H   -0.032001
    49  H   -0.006597
    50  H   -0.025955
    51  H    0.191076
 Sum of Mulliken atomic charges =   0.00000

 Dipole moment (field-independent basis, Debye):
    X=            -21.9885    Y=             19.2716    Z=             -1.7414  Tot=             29.2903
 Quadrupole moment (field-independent basis, Debye-Ang):
   XX=           -378.7631   YY=           -182.5594   ZZ=           -201.1083
   XY=             68.0645   XZ=             19.5529   YZ=             10.9030

 Normal termination of Gaussian 09 at Sat Mar 21 18:18:09 2015.
