 Gaussian 09, Revision B.01,
 Gaussian 09:  EM64L-G09RevB.01 12-Aug-2010

 ------------------------------------------------------
 # opt=modredundant B3LYP/cc-pVDZ Geom=PrintInputOrient
 ------------------------------------------------------

 -------------------------------
 CY3 Dihedral Scan at MP2/6-31G*
 -------------------------------
 Symbolic Z-matrix:
 Charge =  0 Multiplicity = 1

 SCF Done:  E(RB3LYP) =  -2169.39489223     A.U. after   31 cycles
 SCF Done:  E(RB3LYP) =  -2169.39489900     A.U. after    8 cycles
 SCF Done:  E(RB3LYP) =  -2169.39489941     A.U. after    8 cycles
 Optimization completed.
    -- Stationary point found.
 SCF Done:  E(RB3LYP) =  -2169.38902506     A.U. after   15 cycles
 SCF Done:  E(RB3LYP) =  -2169.38907537     A.U. after   10 cycles
 SCF Done:  E(RB3LYP) =  -2169.39219156     A.U. after   16 cycles
 SCF Done:  E(RB3LYP) =  -2169.39279106     A.U. after   16 cycles
 SCF Done:  E(RB3LYP) =  -2169.39286241     A.U. after   24 cycles
 SCF Done:  E(RB3LYP) =  -2169.39291956     A.U. after   10 cycles
 SCF Done:  E(RB3LYP) =  -2169.39297871     A.U. after   11 cycles
 Optimization completed.
    -- Stationary point found.
 SCF Done:  E(RB3LYP) =  -2169.38636083     A.U. after    8 cycles
 SCF Done:  E(RB3LYP) =  -2169.38636117     A.U. after    8 cycles
 SCF Done:  E(RB3LYP) =  -2169.38636142     A.U. after    8 cycles
 SCF Done:  E(RB3LYP) =  -2169.38636149     A.U. after    7 cycles
 SCF Done:  E(RB3LYP) =  -2169.38636154     A.U. after    8 cycles
 SCF Done:  E(RB3LYP) =  -2169.38636155     A.U. after    7 cycles
 SCF Done:  E(RB3LYP) =  -2169.38636157     A.U. after    7 cycles
 SCF Done:  E(RB3LYP) =  -2169.38636166     A.U. after    7 cycles
 SCF Done:  E(RB3LYP) =  -2169.38636174     A.U. after    7 cycles
 SCF Done:  E(RB3LYP) =  -2169.38636174     A.U. after    7 cycles
 Optimization completed.
    -- Stationary point found.

                         Standard orientation:
 ---------------------------------------------------------------------
 Center     Atomic      Atomic             Coordinates (Angstroms)
 Number     Number       Type             X           Y           Z
 ---------------------------------------------------------------------
      1          6           0       -6.045581    1.614363   -0.048748
      2          6           0       -4.696387    1.428686   -0.340005
      3          6           0       -4.114540    0.142497   -0.408669
      4          6           0       -4.883682   -0.985677   -0.199028
      5          6           0       -6.245052   -0.795618    0.101235
      6          6           0       -6.824112    0.470215    0.178628
      7          6           0       -2.683242    0.340149   -0.854906
      8          6           0       -2.455343    1.787102   -0.460181
      9          7           0       -3.692546    2.403120   -0.558559
     10          6           0       -3.916835    3.820798   -0.339811
     11          6           0       -1.275560    2.426370   -0.171863
     12          6           0        1.182907    2.404295    0.129862
     13          6           0       -0.010647    1.779275   -0.158188
     14          6           0        3.874623    3.678483    0.754305
     15          7           0        3.616014    2.287188    0.404675
     16          6           0        2.427888    1.727994    0.133390
     17          6           0        2.652675    0.261955   -0.173349
     18          6           0        4.144483    0.101271   -0.036896
     19          6           0        4.678290    1.352139    0.311153
     20          6           0        6.046093    1.566024    0.499644
     21          6           0        6.882072    0.460467    0.332672
     22          6           0        6.361041   -0.801462   -0.000157
     23          6           0        4.983754   -0.988211   -0.202035
     24         16           0        7.490365   -2.248615   -0.146015
     25         16           0       -7.260725   -2.232283    0.434545
     26          8           0       -8.509853   -1.794542    1.078739
     27          8           0       -7.603521   -2.676117   -1.135257
     28          8           0       -6.429587   -3.317317    0.999575
     29          8           0        7.573914   -2.694067    1.284328
     30          8           0        6.739540   -3.171298   -1.059198
     31          8           0        8.744191   -1.647425   -0.702974
     32          1           0       -6.493437    2.605323    0.028201
     33          1           0       -4.464862   -1.991860   -0.243309
     34          1           0       -7.879755    0.558193    0.436438
     35          1           0       -2.604419    0.246531   -1.953270
     36          1           0       -1.968978   -0.359302   -0.401340
     37          1           0       -4.898905    4.096542   -0.745850
     38          1           0       -3.884305    4.087070    0.731745
     39          1           0       -3.153832    4.398928   -0.878304
     40          1           0       -1.301902    3.491142    0.071692
     41          1           0        1.163545    3.471616    0.359036
     42          1           0        0.010624    0.711728   -0.395328
     43          1           0        4.422154    3.713957    1.707219
     44          1           0        4.494517    4.144100   -0.026521
     45          1           0        2.938850    4.235108    0.856975
     46          1           0        2.287697    0.017906   -1.184899
     47          1           0        2.089496   -0.370176    0.533529
     48          1           0        6.454211    2.545903    0.753776
     49          1           0        7.964371    0.551428    0.439230
     50          1           0        4.634189   -1.980481   -0.494459
     51          1           0       -7.562301   -3.652018   -1.137898
 ---------------------------------------------------------------------

 The electronic state is 1-A.
 Alpha  occ. eigenvalues --  -89.14800 -89.01853 -19.20981 -19.16509 -19.16442
 Alpha  occ. eigenvalues --  -19.02927 -19.02888 -19.02836 -14.46384 -14.44333
 Alpha  occ. eigenvalues --  -10.31375 -10.30877 -10.29257 -10.28881 -10.28813
 Alpha  occ. eigenvalues --  -10.27193 -10.26746 -10.26408 -10.25739 -10.25647
 Alpha  occ. eigenvalues --  -10.25465 -10.25434 -10.25378 -10.25359 -10.25217
 Alpha  occ. eigenvalues --  -10.24939 -10.22239 -10.21551 -10.19665 -10.19506
 Alpha  occ. eigenvalues --  -10.19037  -8.17963  -8.04689  -6.14387  -6.14231
 Alpha  occ. eigenvalues --   -6.14091  -6.01020  -6.00992  -6.00984  -1.15641
 Alpha  occ. eigenvalues --   -1.06020  -1.05369  -1.05129  -1.02923  -1.01757
 Alpha  occ. eigenvalues --   -0.91966  -0.88933  -0.88497  -0.88232  -0.88042
 Alpha  occ. eigenvalues --   -0.86797  -0.84768  -0.82545  -0.80912  -0.78197
 Alpha  occ. eigenvalues --   -0.77398  -0.76184  -0.75051  -0.73685  -0.71435
 Alpha  occ. eigenvalues --   -0.68369  -0.66108  -0.64841  -0.63027  -0.62522
 Alpha  occ. eigenvalues --   -0.60767  -0.60279  -0.58344  -0.57178  -0.56817
 Alpha  occ. eigenvalues --   -0.55075  -0.54657  -0.53986  -0.53640  -0.53435
 Alpha  occ. eigenvalues --   -0.52345  -0.51253  -0.50566  -0.49390  -0.49051
 Alpha  occ. eigenvalues --   -0.48740  -0.48640  -0.48179  -0.47387  -0.46958
 Alpha  occ. eigenvalues --   -0.46943  -0.46259  -0.45522  -0.45235  -0.44358
 Alpha  occ. eigenvalues --   -0.44126  -0.43462  -0.42892  -0.42303  -0.41579
 Alpha  occ. eigenvalues --   -0.41090  -0.40525  -0.40095  -0.39109  -0.38459
 Alpha  occ. eigenvalues --   -0.38237  -0.36774  -0.36458  -0.36045  -0.35456
 Alpha  occ. eigenvalues --   -0.34863  -0.34091  -0.33989  -0.31924  -0.31250
 Alpha  occ. eigenvalues --   -0.30864  -0.27442  -0.26836  -0.24602  -0.23788
 Alpha  occ. eigenvalues --   -0.23690  -0.21010  -0.20722  -0.19807  -0.16619
 Alpha virt. eigenvalues --   -0.13931  -0.07441  -0.06967  -0.04119  -0.02096
 Alpha virt. eigenvalues --   -0.00438  -0.00066   0.00487   0.01123   0.01451
 Alpha virt. eigenvalues --    0.02104   0.03333   0.04126   0.04592   0.05363

 Mulliken atomic charges:
              1
     1  C    0.003970
     2  C    0.229180
     3  C   -0.115231
     4  C    0.051748
     5  C   -0.249539
     6  C    0.103992
     7  C    0.141890
     8  C    0.071496
     9  N   -0.297123
    10  C    0.073776
    11  C   -0.044341
    12  C   -0.036678
    13  C    0.064895
    14  C    0.072340
    15  N   -0.249593
    16  C    0.058607
    17  C    0.149451
    18  C   -0.110170
    19  C    0.213783
    20  C   -0.008353
    21  C    0.112359
    22  C   -0.242714
    23  C    0.039209
    24  S    0.986570
    25  S    0.994110
    26  O   -0.411087
    27  O   -0.325578
    28  O   -0.437610
    29  O   -0.515856
    30  O   -0.524302
    31  O   -0.519641
    32  H   -0.013445
    33  H   -0.012331
    34  H    0.005718
    35  H    0.082019
    36  H    0.053415
    37  H    0.059604
    38  H    0.049898
    39  H    0.056673
    40  H   -0.027756
    41  H   -0.021193
    42  H   -0.009639
    43  H    0.074435
    44  H    0.072572
    45  H    0.055343
    46  H    0.082973
    47  H    0.083823
    48  H   -0.031208
    49  H   -0.005929
    50  H   -0.025114
    51  H    0.190581
 Sum of Mulliken atomic charges =   0.00000

 Dipole moment (field-independent basis, Debye):
    X=            -21.4396    Y=             18.8437    Z=             -1.4074  Tot=             28.5783
 Quadrupole moment (field-independent basis, Debye-Ang):
   XX=           -380.0782   YY=           -179.1518   ZZ=           -202.0672
   XY=             68.0205   XZ=             25.5844   YZ=             10.7785

 Normal termination of Gaussian 09 at Sat Mar 21 12:30:31 2015.
