 Gaussian 09, Revision B.01,
 Gaussian 09:  EM64L-G09RevB.01 12-Aug-2010

 ------------------------------------------------------
 # opt=modredundant B3LYP/cc-pVDZ Geom=PrintInputOrient
 ------------------------------------------------------

 -------------------------------
 CY3 Dihedral Scan at MP2/6-31G*
 -------------------------------
 Symbolic Z-matrix:
 Charge =  0 Multiplicity = 1

 SCF Done:  E(RB3LYP) =  -2169.39489223     A.U. after   31 cycles
 SCF Done:  E(RB3LYP) =  -2169.39489902     A.U. after    8 cycles
 SCF Done:  E(RB3LYP) =  -2169.39489943     A.U. after    8 cycles
 Optimization completed.
    -- Stationary point found.
 SCF Done:  E(RB3LYP) =  -2169.39362556     A.U. after   13 cycles
 SCF Done:  E(RB3LYP) =  -2169.39365531     A.U. after    8 cycles
 SCF Done:  E(RB3LYP) =  -2169.39404531     A.U. after   12 cycles
 SCF Done:  E(RB3LYP) =  -2169.39406348     A.U. after   10 cycles
 SCF Done:  E(RB3LYP) =  -2169.39406640     A.U. after    8 cycles
 SCF Done:  E(RB3LYP) =  -2169.39406733     A.U. after    8 cycles
 SCF Done:  E(RB3LYP) =  -2169.39406852     A.U. after    8 cycles
 Optimization completed.
    -- Stationary point found.
 SCF Done:  E(RB3LYP) =  -2169.39152155     A.U. after   12 cycles
 SCF Done:  E(RB3LYP) =  -2169.39152893     A.U. after   11 cycles
 SCF Done:  E(RB3LYP) =  -2169.39152997     A.U. after    8 cycles
 SCF Done:  E(RB3LYP) =  -2169.39153010     A.U. after    7 cycles
 SCF Done:  E(RB3LYP) =  -2169.39153027     A.U. after    8 cycles
 SCF Done:  E(RB3LYP) =  -2169.39153051     A.U. after    8 cycles
 SCF Done:  E(RB3LYP) =  -2169.39153093     A.U. after    8 cycles
 SCF Done:  E(RB3LYP) =  -2169.39153130     A.U. after   10 cycles
 SCF Done:  E(RB3LYP) =  -2169.39153138     A.U. after    8 cycles
 SCF Done:  E(RB3LYP) =  -2169.39153139     A.U. after    7 cycles
 Optimization completed.
    -- Stationary point found.

                         Standard orientation:
 ---------------------------------------------------------------------
 Center     Atomic      Atomic             Coordinates (Angstroms)
 Number     Number       Type             X           Y           Z
 ---------------------------------------------------------------------
      1          6           0        6.066929    1.632206   -0.116584
      2          6           0        4.689918    1.424988   -0.008201
      3          6           0        4.135358    0.131872   -0.024572
      4          6           0        4.956540   -0.983567   -0.046732
      5          6           0        6.343352   -0.770674   -0.068675
      6          6           0        6.899910    0.508830   -0.125971
      7          6           0        2.634764    0.258880   -0.106300
      8          6           0        2.421300    1.762450   -0.087557
      9          7           0        3.655279    2.380885   -0.078713
     10          6           0        3.809773    3.765872    0.349279
     11          6           0        1.219929    2.435274   -0.050691
     12          6           0       -1.257557    2.431588   -0.033207
     13          6           0       -0.039132    1.784178   -0.050814
     14          6           0       -3.996896    3.754804   -0.031256
     15          7           0       -3.706005    2.326919   -0.019662
     16          6           0       -2.495917    1.747141   -0.024486
     17          6           0       -2.690439    0.244449   -0.011864
     18          6           0       -4.188962    0.086150    0.005875
     19          6           0       -4.753976    1.371445    0.002927
     20          6           0       -6.132656    1.592458    0.034575
     21          6           0       -6.948977    0.459422    0.059462
     22          6           0       -6.398853   -0.832836    0.045776
     23          6           0       -5.007992   -1.030092    0.034398
     24         16           0       -7.507670   -2.302474    0.003510
     25         16           0        7.433326   -2.192140   -0.105446
     26          8           0        8.748361   -1.766604   -0.609890
     27          8           0        7.570852   -2.471765    1.531122
     28          8           0        6.715826   -3.357927   -0.666085
     29          8           0       -7.678593   -2.489382   -1.475516
     30          8           0       -6.691431   -3.358475    0.687585
     31          8           0       -8.727884   -1.835222    0.735934
     32          1           0        6.497793    2.631783   -0.182368
     33          1           0        4.557370   -1.998408   -0.072762
     34          1           0        7.981933    0.618451   -0.201024
     35          1           0        2.114816   -0.225132    0.736388
     36          1           0        2.238060   -0.192710   -1.030897
     37          1           0        4.875387    4.002004    0.445915
     38          1           0        3.372226    4.454248   -0.389735
     39          1           0        3.316326    3.925378    1.322224
     40          1           0        1.226604    3.527054   -0.032617
     41          1           0       -1.259430    3.523387   -0.022227
     42          1           0       -0.040603    0.690014   -0.065635
     43          1           0       -4.670255    3.977510   -0.871552
     44          1           0       -4.498373    4.036741    0.906880
     45          1           0       -3.078684    4.338350   -0.143455
     46          1           0       -2.203954   -0.200870    0.871851
     47          1           0       -2.224355   -0.213031   -0.900594
     48          1           0       -6.562397    2.595659    0.049985
     49          1           0       -8.035880    0.546498    0.106521
     50          1           0       -4.629119   -2.053725    0.062724
     51          1           0        7.471581   -3.438027    1.632508
 ---------------------------------------------------------------------

 The electronic state is 1-A.
 Alpha  occ. eigenvalues --  -89.15032 -89.01726 -19.21168 -19.16779 -19.16645
 Alpha  occ. eigenvalues --  -19.02793 -19.02770 -19.02697 -14.46095 -14.44738
 Alpha  occ. eigenvalues --  -10.31162 -10.30916 -10.29502 -10.29028 -10.28703
 Alpha  occ. eigenvalues --  -10.27012 -10.26935 -10.26656 -10.25949 -10.25810
 Alpha  occ. eigenvalues --  -10.25621 -10.25475 -10.25287 -10.25208 -10.25136
 Alpha  occ. eigenvalues --  -10.24644 -10.22057 -10.21387 -10.19557 -10.19306
 Alpha  occ. eigenvalues --  -10.18869  -8.18191  -8.04561  -6.14614  -6.14461
 Alpha  occ. eigenvalues --   -6.14319  -6.00891  -6.00865  -6.00856  -1.15885
 Alpha  occ. eigenvalues --   -1.05771  -1.05591  -1.05333  -1.03187  -1.01625
 Alpha  occ. eigenvalues --   -0.92260  -0.88828  -0.88371  -0.88095  -0.87868
 Alpha  occ. eigenvalues --   -0.86751  -0.84771  -0.82692  -0.80952  -0.78144
 Alpha  occ. eigenvalues --   -0.77272  -0.76406  -0.74966  -0.73599  -0.71568
 Alpha  occ. eigenvalues --   -0.68310  -0.66372  -0.65042  -0.63122  -0.62425
 Alpha  occ. eigenvalues --   -0.60766  -0.60121  -0.58523  -0.57187  -0.56818
 Alpha  occ. eigenvalues --   -0.54889  -0.54490  -0.54064  -0.53930  -0.53428
 Alpha  occ. eigenvalues --   -0.52190  -0.51316  -0.50767  -0.49622  -0.49164
 Alpha  occ. eigenvalues --   -0.48681  -0.48559  -0.48263  -0.47484  -0.47063
 Alpha  occ. eigenvalues --   -0.46769  -0.46126  -0.45485  -0.45365  -0.44485
 Alpha  occ. eigenvalues --   -0.44109  -0.43473  -0.43286  -0.42143  -0.41446
 Alpha  occ. eigenvalues --   -0.40974  -0.40668  -0.40299  -0.39119  -0.38406
 Alpha  occ. eigenvalues --   -0.38290  -0.36741  -0.36318  -0.36222  -0.35381
 Alpha  occ. eigenvalues --   -0.34726  -0.34260  -0.34135  -0.32274  -0.31350
 Alpha  occ. eigenvalues --   -0.31198  -0.27412  -0.26688  -0.24331  -0.23663
 Alpha  occ. eigenvalues --   -0.23559  -0.20860  -0.20617  -0.19662  -0.16495
 Alpha virt. eigenvalues --   -0.13840  -0.07581  -0.07261  -0.04000  -0.01975
 Alpha virt. eigenvalues --   -0.00268   0.00077   0.00465   0.01077   0.01483
 Alpha virt. eigenvalues --    0.02442   0.03273   0.03799   0.04384   0.04818

 Mulliken atomic charges:
              1
     1  C    0.006161
     2  C    0.219765
     3  C   -0.130783
     4  C    0.052150
     5  C   -0.250502
     6  C    0.111097
     7  C    0.152568
     8  C    0.063938
     9  N   -0.290341
    10  C    0.073485
    11  C   -0.052793
    12  C   -0.037473
    13  C    0.060942
    14  C    0.072639
    15  N   -0.251019
    16  C    0.058802
    17  C    0.149836
    18  C   -0.112368
    19  C    0.214101
    20  C   -0.008121
    21  C    0.108424
    22  C   -0.242630
    23  C    0.042703
    24  S    0.986285
    25  S    0.996970
    26  O   -0.409204
    27  O   -0.324165
    28  O   -0.437998
    29  O   -0.517144
    30  O   -0.525203
    31  O   -0.520138
    32  H   -0.006557
    33  H   -0.013663
    34  H    0.005528
    35  H    0.078116
    36  H    0.082765
    37  H    0.053281
    38  H    0.058610
    39  H    0.054337
    40  H   -0.031854
    41  H   -0.022751
    42  H   -0.008206
    43  H    0.073602
    44  H    0.071477
    45  H    0.054734
    46  H    0.081170
    47  H    0.082622
    48  H   -0.031862
    49  H   -0.006411
    50  H   -0.026155
    51  H    0.191234
 Sum of Mulliken atomic charges =   0.00000

 Dipole moment (field-independent basis, Debye):
    X=             21.5883    Y=             18.9874    Z=              1.9346  Tot=             28.8152
 Quadrupole moment (field-independent basis, Debye-Ang):
   XX=           -385.4830   YY=           -181.1997   ZZ=           -201.8417
   XY=            -68.9605   XZ=             12.3183   YZ=             -6.4108

 Normal termination of Gaussian 09 at Sat Mar 21 02:29:02 2015.
