 Gaussian 09, Revision B.01,
 Gaussian 09:  EM64L-G09RevB.01 12-Aug-2010

 ------------------------------------------------------
 # opt=modredundant B3LYP/cc-pVDZ Geom=PrintInputOrient
 ------------------------------------------------------

 -------------------------------
 CY3 Dihedral Scan at MP2/6-31G*
 -------------------------------
 Symbolic Z-matrix:
 Charge =  0 Multiplicity = 1

 SCF Done:  E(RB3LYP) =  -2169.39489223     A.U. after   31 cycles
 SCF Done:  E(RB3LYP) =  -2169.39489905     A.U. after    8 cycles
 SCF Done:  E(RB3LYP) =  -2169.39489944     A.U. after    8 cycles
 Optimization completed.
    -- Stationary point found.
 SCF Done:  E(RB3LYP) =  -2169.39261513     A.U. after   13 cycles
 SCF Done:  E(RB3LYP) =  -2169.39263707     A.U. after    8 cycles
 SCF Done:  E(RB3LYP) =  -2169.39361589     A.U. after   12 cycles
 SCF Done:  E(RB3LYP) =  -2169.39364762     A.U. after   12 cycles
 SCF Done:  E(RB3LYP) =  -2169.39365037     A.U. after   10 cycles
 SCF Done:  E(RB3LYP) =  -2169.39365155     A.U. after    9 cycles
 SCF Done:  E(RB3LYP) =  -2169.39365206     A.U. after    7 cycles
 Optimization completed.
    -- Stationary point found.
 SCF Done:  E(RB3LYP) =  -2169.39000145     A.U. after   10 cycles
 SCF Done:  E(RB3LYP) =  -2169.39000181     A.U. after    9 cycles
 SCF Done:  E(RB3LYP) =  -2169.39000190     A.U. after    7 cycles
 SCF Done:  E(RB3LYP) =  -2169.39000194     A.U. after    6 cycles
 SCF Done:  E(RB3LYP) =  -2169.39000198     A.U. after    7 cycles
 SCF Done:  E(RB3LYP) =  -2169.39000209     A.U. after    7 cycles
 SCF Done:  E(RB3LYP) =  -2169.39000234     A.U. after    9 cycles
 SCF Done:  E(RB3LYP) =  -2169.39000277     A.U. after    9 cycles
 SCF Done:  E(RB3LYP) =  -2169.39000313     A.U. after   10 cycles
 SCF Done:  E(RB3LYP) =  -2169.39000316     A.U. after    7 cycles
 Optimization completed.
    -- Stationary point found.

                         Standard orientation:
 ---------------------------------------------------------------------
 Center     Atomic      Atomic             Coordinates (Angstroms)
 Number     Number       Type             X           Y           Z
 ---------------------------------------------------------------------
      1          6           0       -6.065172    1.641191    0.007141
      2          6           0       -4.686992    1.421256    0.019335
      3          6           0       -4.140834    0.125155    0.042675
      4          6           0       -4.969831   -0.984174    0.054847
      5          6           0       -6.355569   -0.761083    0.032131
      6          6           0       -6.905278    0.522230    0.020134
      7          6           0       -2.637671    0.245473    0.085826
      8          6           0       -2.418793    1.744248   -0.026884
      9          7           0       -3.648042    2.375891    0.007229
     10          6           0       -3.825546    3.720915    0.549066
     11          6           0       -1.218433    2.416191   -0.069164
     12          6           0        1.258762    2.418373   -0.108106
     13          6           0        0.042911    1.768585   -0.058047
     14          6           0        3.995110    3.746482   -0.219905
     15          7           0        3.707600    2.319645   -0.146500
     16          6           0        2.499589    1.737766   -0.099171
     17          6           0        2.698690    0.237190   -0.032556
     18          6           0        4.197631    0.082687   -0.043986
     19          6           0        4.758502    1.367913   -0.115544
     20          6           0        6.136510    1.591458   -0.158498
     21          6           0        6.956499    0.461629   -0.117076
     22          6           0        6.410506   -0.829553   -0.029699
     23          6           0        5.020250   -1.030606   -0.008462
     24         16           0        7.523706   -2.290233    0.103029
     25         16           0       -7.455841   -2.174372    0.067204
     26          8           0       -8.786592   -1.727239    0.508432
     27          8           0       -7.529818   -2.499484   -1.565258
     28          8           0       -6.769463   -3.327509    0.689490
     29          8           0        7.683830   -2.391631    1.591712
     30          8           0        6.715847   -3.386527   -0.525075
     31          8           0        8.747838   -1.861003   -0.645797
     32          1           0       -6.491012    2.644634   -0.018592
     33          1           0       -4.579017   -2.001564    0.100222
     34          1           0       -7.989047    0.639967    0.024486
     35          1           0       -2.141184   -0.311430   -0.724305
     36          1           0       -2.221674   -0.128434    1.037342
     37          1           0       -4.859311    3.837462    0.894450
     38          1           0       -3.145036    3.870684    1.401805
     39          1           0       -3.622045    4.496180   -0.206892
     40          1           0       -1.231460    3.507058   -0.131149
     41          1           0        1.256728    3.509153   -0.156257
     42          1           0        0.046756    0.675444   -0.007572
     43          1           0        4.597370    4.041686    0.652026
     44          1           0        4.571727    3.954548   -1.133301
     45          1           0        3.070457    4.330237   -0.235641
     46          1           0        2.212631   -0.255520   -0.891213
     47          1           0        2.234686   -0.174132    0.879346
     48          1           0        6.563093    2.593693   -0.228450
     49          1           0        8.043279    0.549261   -0.166111
     50          1           0        4.644707   -2.055380    0.022572
     51          1           0       -7.462571   -3.471422   -1.633978
 ---------------------------------------------------------------------

 The electronic state is 1-A.
 Alpha  occ. eigenvalues --  -89.14973 -89.01778 -19.21116 -19.16716 -19.16587
 Alpha  occ. eigenvalues --  -19.02844 -19.02824 -19.02757 -14.46180 -14.44506
 Alpha  occ. eigenvalues --  -10.31225 -10.30889 -10.29356 -10.28943 -10.28757
 Alpha  occ. eigenvalues --  -10.27049 -10.26932 -10.26590 -10.25886 -10.25772
 Alpha  occ. eigenvalues --  -10.25584 -10.25372 -10.25345 -10.25259 -10.25209
 Alpha  occ. eigenvalues --  -10.24675 -10.22118 -10.21445 -10.19614 -10.19360
 Alpha  occ. eigenvalues --  -10.18931  -8.18134  -8.04614  -6.14557  -6.14403
 Alpha  occ. eigenvalues --   -6.14262  -6.00944  -6.00917  -6.00908  -1.15821
 Alpha  occ. eigenvalues --   -1.05844  -1.05404  -1.05276  -1.03120  -1.01680
 Alpha  occ. eigenvalues --   -0.92158  -0.88849  -0.88427  -0.88147  -0.87925
 Alpha  occ. eigenvalues --   -0.86724  -0.84737  -0.82634  -0.80942  -0.78131
 Alpha  occ. eigenvalues --   -0.77301  -0.76359  -0.75017  -0.73639  -0.71531
 Alpha  occ. eigenvalues --   -0.68318  -0.66295  -0.64992  -0.63112  -0.62468
 Alpha  occ. eigenvalues --   -0.60766  -0.60147  -0.58440  -0.57091  -0.56818
 Alpha  occ. eigenvalues --   -0.54943  -0.54461  -0.53987  -0.53860  -0.53485
 Alpha  occ. eigenvalues --   -0.52205  -0.51259  -0.50730  -0.49495  -0.49123
 Alpha  occ. eigenvalues --   -0.48672  -0.48619  -0.48231  -0.47500  -0.47089
 Alpha  occ. eigenvalues --   -0.46830  -0.46167  -0.45452  -0.45399  -0.44453
 Alpha  occ. eigenvalues --   -0.44159  -0.43471  -0.43154  -0.42205  -0.41508
 Alpha  occ. eigenvalues --   -0.41000  -0.40707  -0.40091  -0.39073  -0.38382
 Alpha  occ. eigenvalues --   -0.38306  -0.36743  -0.36368  -0.36194  -0.35408
 Alpha  occ. eigenvalues --   -0.34779  -0.34191  -0.34107  -0.32173  -0.31336
 Alpha  occ. eigenvalues --   -0.31139  -0.27424  -0.26744  -0.24389  -0.23717
 Alpha  occ. eigenvalues --   -0.23610  -0.20912  -0.20671  -0.19716  -0.16548
 Alpha virt. eigenvalues --   -0.13901  -0.07460  -0.07237  -0.04151  -0.02033
 Alpha virt. eigenvalues --   -0.00310   0.00053   0.00469   0.01164   0.01533
 Alpha virt. eigenvalues --    0.02336   0.03281   0.03860   0.04367   0.05119

 Mulliken atomic charges:
              1
     1  C   -0.002148
     2  C    0.235063
     3  C   -0.127601
     4  C    0.047555
     5  C   -0.249933
     6  C    0.111042
     7  C    0.155915
     8  C    0.056652
     9  N   -0.294968
    10  C    0.068286
    11  C   -0.051147
    12  C   -0.036749
    13  C    0.063062
    14  C    0.072846
    15  N   -0.250435
    16  C    0.058529
    17  C    0.149826
    18  C   -0.112442
    19  C    0.214577
    20  C   -0.007935
    21  C    0.108176
    22  C   -0.242610
    23  C    0.043109
    24  S    0.986409
    25  S    0.995782
    26  O   -0.409862
    27  O   -0.324130
    28  O   -0.438141
    29  O   -0.517011
    30  O   -0.524804
    31  O   -0.519802
    32  H   -0.006784
    33  H   -0.014178
    34  H    0.005135
    35  H    0.074737
    36  H    0.084072
    37  H    0.056231
    38  H    0.053720
    39  H    0.056489
    40  H   -0.028449
    41  H   -0.022176
    42  H   -0.007823
    43  H    0.072942
    44  H    0.072791
    45  H    0.054622
    46  H    0.082230
    47  H    0.082113
    48  H   -0.031791
    49  H   -0.006186
    50  H   -0.025938
    51  H    0.191132
 Sum of Mulliken atomic charges =   0.00000

 Dipole moment (field-independent basis, Debye):
    X=            -21.3628    Y=             18.7851    Z=             -1.7322  Tot=             28.5000
 Quadrupole moment (field-independent basis, Debye-Ang):
   XX=           -387.0663   YY=           -180.9784   ZZ=           -201.6808
   XY=             69.3231   XZ=              3.4077   YZ=              9.4816

 Normal termination of Gaussian 09 at Fri Mar 20 21:14:00 2015.
