 Gaussian 09, Revision B.01,
 Gaussian 09:  EM64L-G09RevB.01 12-Aug-2010

 ------------------------------------------------------
 # opt=modredundant B3LYP/cc-pVDZ Geom=PrintInputOrient
 ------------------------------------------------------

 -------------------------------
 CY3 Dihedral Scan at MP2/6-31G*
 -------------------------------
 Symbolic Z-matrix:
 Charge =  0 Multiplicity = 1

 SCF Done:  E(RB3LYP) =  -2169.39489223     A.U. after   31 cycles
 SCF Done:  E(RB3LYP) =  -2169.39489902     A.U. after    8 cycles
 SCF Done:  E(RB3LYP) =  -2169.39489943     A.U. after    8 cycles
 Optimization completed.
    -- Stationary point found.
 SCF Done:  E(RB3LYP) =  -2169.39175866     A.U. after   13 cycles
 SCF Done:  E(RB3LYP) =  -2169.39177278     A.U. after    8 cycles
 SCF Done:  E(RB3LYP) =  -2169.39206383     A.U. after   12 cycles
 SCF Done:  E(RB3LYP) =  -2169.39208324     A.U. after   10 cycles
 SCF Done:  E(RB3LYP) =  -2169.39208603     A.U. after    8 cycles
 SCF Done:  E(RB3LYP) =  -2169.39208723     A.U. after    8 cycles
 SCF Done:  E(RB3LYP) =  -2169.39208841     A.U. after    9 cycles
 SCF Done:  E(RB3LYP) =  -2169.39209575     A.U. after    8 cycles
 SCF Done:  E(RB3LYP) =  -2169.39209598     A.U. after    8 cycles
 SCF Done:  E(RB3LYP) =  -2169.39209623     A.U. after    8 cycles
 SCF Done:  E(RB3LYP) =  -2169.39209638     A.U. after    8 cycles
 SCF Done:  E(RB3LYP) =  -2169.39209644     A.U. after    7 cycles
 Optimization completed.
    -- Stationary point found.
 SCF Done:  E(RB3LYP) =  -2169.38255840     A.U. after   13 cycles
 SCF Done:  E(RB3LYP) =  -2169.38327172     A.U. after   12 cycles
 SCF Done:  E(RB3LYP) =  -2169.38328326     A.U. after   12 cycles
 SCF Done:  E(RB3LYP) =  -2169.38328414     A.U. after    9 cycles
 SCF Done:  E(RB3LYP) =  -2169.38328417     A.U. after    7 cycles
 Optimization completed.
    -- Stationary point found.

                         Standard orientation:
 ---------------------------------------------------------------------
 Center     Atomic      Atomic             Coordinates (Angstroms)
 Number     Number       Type             X           Y           Z
 ---------------------------------------------------------------------
      1          6           0        6.067975    1.620151   -0.266103
      2          6           0        4.693612    1.406492   -0.118296
      3          6           0        4.133364    0.110228   -0.117198
      4          6           0        4.970460   -0.978511   -0.304672
      5          6           0        6.335331   -0.760902   -0.039790
      6          6           0        6.908229    0.497319   -0.248094
      7          6           0        2.631479    0.244588   -0.117714
      8          6           0        2.423030    1.748647   -0.046281
      9          7           0        3.657690    2.353189   -0.046653
     10          6           0        3.850319    3.791711    0.009962
     11          6           0        1.224278    2.427854    0.008909
     12          6           0       -1.253435    2.431337    0.059763
     13          6           0       -0.036124    1.781982    0.009359
     14          6           0       -3.992510    3.755063    0.163297
     15          7           0       -3.701963    2.328526    0.103652
     16          6           0       -2.492249    1.748972    0.058147
     17          6           0       -2.688343    0.247075    0.005513
     18          6           0       -4.186867    0.089102    0.027528
     19          6           0       -4.750619    1.373340    0.089340
     20          6           0       -6.128772    1.593227    0.139907
     21          6           0       -6.946026    0.460572    0.115869
     22          6           0       -6.397224   -0.829720    0.037546
     23          6           0       -5.006596   -1.026819    0.008713
     24         16           0       -7.506785   -2.295480   -0.071212
     25         16           0        7.426346   -2.188930   -0.003530
     26          8           0        8.780125   -1.770130   -0.398679
     27          8           0        7.447979   -2.471852    1.637122
     28          8           0        6.748889   -3.355276   -0.613585
     29          8           0       -7.674917   -2.417558   -1.557332
     30          8           0       -6.692067   -3.381009    0.567037
     31          8           0       -8.728265   -1.860599    0.678905
     32          1           0        6.489115    2.617818   -0.391896
     33          1           0        4.589866   -1.997635   -0.395944
     34          1           0        7.992301    0.602128   -0.291420
     35          1           0        2.164626   -0.263516    0.741678
     36          1           0        2.174932   -0.177802   -1.028223
     37          1           0        4.913482    4.013556    0.153525
     38          1           0        3.506274    4.274493   -0.919520
     39          1           0        3.291632    4.216717    0.858250
     40          1           0        1.236978    3.519003    0.049305
     41          1           0       -1.252628    3.522303    0.103722
     42          1           0       -0.041303    0.688561   -0.034206
     43          1           0       -4.634626    4.029685   -0.686440
     44          1           0       -4.528464    3.980951    1.097328
     45          1           0       -3.070889    4.342550    0.123147
     46          1           0       -2.195849   -0.237666    0.864936
     47          1           0       -2.229410   -0.170478   -0.906162
     48          1           0       -6.557719    2.594868    0.203953
     49          1           0       -8.032649    0.545771    0.172279
     50          1           0       -4.628125   -2.050734   -0.014183
     51          1           0        7.199551   -3.410864    1.734772
 ---------------------------------------------------------------------

 The electronic state is 1-A.
 Alpha  occ. eigenvalues --  -89.15008 -89.01658 -19.21192 -19.16862 -19.16680
 Alpha  occ. eigenvalues --  -19.02722 -19.02702 -19.02621 -14.45971 -14.45150
 Alpha  occ. eigenvalues --  -10.31096 -10.31080 -10.29685 -10.29266 -10.28631
 Alpha  occ. eigenvalues --  -10.27098 -10.26967 -10.26721 -10.26079 -10.25965
 Alpha  occ. eigenvalues --  -10.25767 -10.25462 -10.25200 -10.25139 -10.25035
 Alpha  occ. eigenvalues --  -10.24645 -10.21971 -10.21307 -10.19487 -10.19224
 Alpha  occ. eigenvalues --  -10.18782  -8.18171  -8.04493  -6.14592  -6.14447
 Alpha  occ. eigenvalues --   -6.14291  -6.00823  -6.00797  -6.00788  -1.15923
 Alpha  occ. eigenvalues --   -1.05968  -1.05662  -1.05354  -1.03245  -1.01554
 Alpha  occ. eigenvalues --   -0.92424  -0.88860  -0.88302  -0.88023  -0.87787
 Alpha  occ. eigenvalues --   -0.86876  -0.84783  -0.82645  -0.80953  -0.78228
 Alpha  occ. eigenvalues --   -0.77242  -0.76533  -0.74960  -0.73574  -0.71578
 Alpha  occ. eigenvalues --   -0.68296  -0.66299  -0.65147  -0.63076  -0.62359
 Alpha  occ. eigenvalues --   -0.60836  -0.60077  -0.58710  -0.57264  -0.56793
 Alpha  occ. eigenvalues --   -0.54822  -0.54462  -0.54217  -0.53954  -0.53340
 Alpha  occ. eigenvalues --   -0.52129  -0.51310  -0.50854  -0.49821  -0.49320
 Alpha  occ. eigenvalues --   -0.48652  -0.48497  -0.48330  -0.47601  -0.46970
 Alpha  occ. eigenvalues --   -0.46702  -0.46121  -0.45507  -0.45328  -0.44690
 Alpha  occ. eigenvalues --   -0.44063  -0.43468  -0.43387  -0.42093  -0.41390
 Alpha  occ. eigenvalues --   -0.41141  -0.40724  -0.40357  -0.39005  -0.38365
 Alpha  occ. eigenvalues --   -0.38223  -0.36709  -0.36248  -0.36138  -0.35439
 Alpha  occ. eigenvalues --   -0.34656  -0.34328  -0.34262  -0.32467  -0.31179
 Alpha  occ. eigenvalues --   -0.31012  -0.27258  -0.26607  -0.24191  -0.23596
 Alpha  occ. eigenvalues --   -0.23486  -0.20792  -0.20550  -0.19588  -0.16428
 Alpha virt. eigenvalues --   -0.13766  -0.07883  -0.07446  -0.03877  -0.01902
 Alpha virt. eigenvalues --   -0.00175  -0.00085   0.00473   0.01066   0.01468
 Alpha virt. eigenvalues --    0.02481   0.03189   0.03803   0.04385   0.05054

 Mulliken atomic charges:
              1
     1  C   -0.019303
     2  C    0.245013
     3  C   -0.148355
     4  C    0.055919
     5  C   -0.271970
     6  C    0.118001
     7  C    0.149722
     8  C    0.069347
     9  N   -0.294790
    10  C    0.075579
    11  C   -0.060666
    12  C   -0.038315
    13  C    0.061681
    14  C    0.073090
    15  N   -0.251811
    16  C    0.058676
    17  C    0.149427
    18  C   -0.112498
    19  C    0.214437
    20  C   -0.008364
    21  C    0.107670
    22  C   -0.242640
    23  C    0.042998
    24  S    0.986060
    25  S    0.997639
    26  O   -0.407285
    27  O   -0.320089
    28  O   -0.438510
    29  O   -0.517822
    30  O   -0.525650
    31  O   -0.520510
    32  H   -0.007139
    33  H    0.005632
    34  H    0.019271
    35  H    0.078291
    36  H    0.082379
    37  H    0.056487
    38  H    0.057163
    39  H    0.059525
    40  H   -0.031688
    41  H   -0.023424
    42  H   -0.008879
    43  H    0.072777
    44  H    0.071650
    45  H    0.053976
    46  H    0.081091
    47  H    0.081673
    48  H   -0.032344
    49  H   -0.006708
    50  H   -0.026610
    51  H    0.190197
 Sum of Mulliken atomic charges =   0.00000

 Dipole moment (field-independent basis, Debye):
    X=             21.6477    Y=             19.1154    Z=              1.7936  Tot=             28.9350
 Quadrupole moment (field-independent basis, Debye-Ang):
   XX=           -390.3503   YY=           -181.0302   ZZ=           -201.3279
   XY=            -66.2691   XZ=              4.0684   YZ=             -7.0762

 Normal termination of Gaussian 09 at Sat Mar 21 14:38:50 2015.
