 Gaussian 09, Revision B.01,
 Gaussian 09:  EM64L-G09RevB.01 12-Aug-2010

 ------------------------------------------------------
 # opt=modredundant B3LYP/cc-pVDZ Geom=PrintInputOrient
 ------------------------------------------------------

 -------------------------------
 CY3 Dihedral Scan at MP2/6-31G*
 -------------------------------
 Symbolic Z-matrix:
 Charge =  0 Multiplicity = 1

 SCF Done:  E(RB3LYP) =  -2169.39489223     A.U. after   31 cycles
 SCF Done:  E(RB3LYP) =  -2169.39489902     A.U. after    8 cycles
 SCF Done:  E(RB3LYP) =  -2169.39489944     A.U. after    8 cycles
 Optimization completed.
    -- Stationary point found.
 SCF Done:  E(RB3LYP) =  -2169.39223573     A.U. after   13 cycles
 SCF Done:  E(RB3LYP) =  -2169.39223026     A.U. after    9 cycles
 SCF Done:  E(RB3LYP) =  -2169.39237694     A.U. after   12 cycles
 SCF Done:  E(RB3LYP) =  -2169.39239067     A.U. after   11 cycles
 SCF Done:  E(RB3LYP) =  -2169.39239847     A.U. after   11 cycles
 SCF Done:  E(RB3LYP) =  -2169.39240235     A.U. after   13 cycles
 SCF Done:  E(RB3LYP) =  -2169.39241562     A.U. after   12 cycles
 Optimization completed.
    -- Stationary point found.
 SCF Done:  E(RB3LYP) =  -2169.38627368     A.U. after   11 cycles
 SCF Done:  E(RB3LYP) =  -2169.38627587     A.U. after   10 cycles
 SCF Done:  E(RB3LYP) =  -2169.38627802     A.U. after   10 cycles
 SCF Done:  E(RB3LYP) =  -2169.38627896     A.U. after   10 cycles
 SCF Done:  E(RB3LYP) =  -2169.38627915     A.U. after    9 cycles
 SCF Done:  E(RB3LYP) =  -2169.38627932     A.U. after    7 cycles
 SCF Done:  E(RB3LYP) =  -2169.38627960     A.U. after    9 cycles
 SCF Done:  E(RB3LYP) =  -2169.38628008     A.U. after    9 cycles
 SCF Done:  E(RB3LYP) =  -2169.38628046     A.U. after   10 cycles
 SCF Done:  E(RB3LYP) =  -2169.38628050     A.U. after    8 cycles
 Optimization completed.
    -- Stationary point found.

                         Standard orientation:
 ---------------------------------------------------------------------
 Center     Atomic      Atomic             Coordinates (Angstroms)
 Number     Number       Type             X           Y           Z
 ---------------------------------------------------------------------
      1          6           0        6.060165    1.637928    0.080250
      2          6           0        4.681167    1.422114    0.064355
      3          6           0        4.131041    0.128689   -0.019917
      4          6           0        4.956823   -0.980079   -0.085830
      5          6           0        6.343745   -0.762440   -0.055987
      6          6           0        6.896025    0.517634    0.014163
      7          6           0        2.627545    0.252117   -0.035360
      8          6           0        2.407936    1.752890    0.050768
      9          7           0        3.638384    2.363279    0.109881
     10          6           0        3.815015    3.802115    0.197209
     11          6           0        1.205189    2.426762    0.066462
     12          6           0       -1.272890    2.418800    0.015586
     13          6           0       -0.051231    1.775766    0.004896
     14          6           0       -3.991477    3.741746    0.054148
     15          7           0       -3.717581    2.312526   -0.032391
     16          6           0       -2.507563    1.732314   -0.053094
     17          6           0       -2.700358    0.233332   -0.163157
     18          6           0       -4.198339    0.074347   -0.166110
     19          6           0       -4.766034    1.361461   -0.118290
     20          6           0       -6.143170    1.584477   -0.221878
     21          6           0       -6.964868    0.451708   -0.226294
     22          6           0       -6.396660   -0.824847   -0.074396
     23          6           0       -5.031252   -1.018450   -0.349457
     24         16           0       -7.480407   -2.296582    0.143090
     25         16           0        7.439766   -2.174785   -0.161696
     26          8           0        8.774452   -1.709314   -0.571205
     27          8           0        7.502285   -2.586520    1.451785
     28          8           0        6.753768   -3.290791   -0.848583
     29          8           0       -6.747387   -3.372149   -0.603472
     30          8           0       -7.462490   -2.433028    1.637028
     31          8           0       -8.788318   -1.864284   -0.446299
     32          1           0        6.493039    2.636967    0.131783
     33          1           0        4.562234   -1.993377   -0.171736
     34          1           0        7.979994    0.633342    0.006414
     35          1           0        2.155120   -0.268679    0.813728
     36          1           0        2.183305   -0.162993   -0.954902
     37          1           0        4.881951    4.039736    0.263900
     38          1           0        3.398089    4.300210   -0.693140
     39          1           0        3.311622    4.198702    1.093357
     40          1           0        1.211192    3.516961    0.128088
     41          1           0       -1.281237    3.509413    0.068939
     42          1           0       -0.049130    0.683140   -0.056709
     43          1           0       -4.227729    4.145871   -0.942635
     44          1           0       -4.855496    3.894967    0.714067
     45          1           0       -3.130603    4.274205    0.471874
     46          1           0       -2.216265   -0.284019    0.681596
     47          1           0       -2.232690   -0.149223   -1.086023
     48          1           0       -6.565465    2.588347   -0.297214
     49          1           0       -8.053019    0.530796   -0.248622
     50          1           0       -4.668324   -2.043319   -0.457475
     51          1           0        7.444713   -3.561405    1.467555
 ---------------------------------------------------------------------

 The electronic state is 1-A.
 Alpha  occ. eigenvalues --  -89.14986 -89.01752 -19.21127 -19.16717 -19.16599
 Alpha  occ. eigenvalues --  -19.02896 -19.02857 -19.02662 -14.45881 -14.45084
 Alpha  occ. eigenvalues --  -10.31003 -10.30894 -10.29678 -10.29236 -10.28536
 Alpha  occ. eigenvalues --  -10.26972 -10.26881 -10.26596 -10.25964 -10.25827
 Alpha  occ. eigenvalues --  -10.25650 -10.25490 -10.25163 -10.25104 -10.24953
 Alpha  occ. eigenvalues --  -10.24574 -10.21992 -10.21263 -10.19543 -10.19298
 Alpha  occ. eigenvalues --  -10.18945  -8.18146  -8.04590  -6.14569  -6.14415
 Alpha  occ. eigenvalues --   -6.14274  -6.00919  -6.00896  -6.00882  -1.15826
 Alpha  occ. eigenvalues --   -1.05931  -1.05555  -1.05286  -1.03124  -1.01656
 Alpha  occ. eigenvalues --   -0.92303  -0.88772  -0.88423  -0.88122  -0.87795
 Alpha  occ. eigenvalues --   -0.86799  -0.84730  -0.82703  -0.80961  -0.78222
 Alpha  occ. eigenvalues --   -0.77180  -0.76485  -0.74874  -0.73543  -0.71593
 Alpha  occ. eigenvalues --   -0.68261  -0.66380  -0.65056  -0.63045  -0.62231
 Alpha  occ. eigenvalues --   -0.60781  -0.59978  -0.58657  -0.57244  -0.56710
 Alpha  occ. eigenvalues --   -0.54784  -0.54463  -0.54135  -0.53996  -0.53286
 Alpha  occ. eigenvalues --   -0.52130  -0.51420  -0.50910  -0.49760  -0.49090
 Alpha  occ. eigenvalues --   -0.48645  -0.48394  -0.48212  -0.47458  -0.47104
 Alpha  occ. eigenvalues --   -0.46494  -0.46061  -0.45480  -0.45245  -0.44468
 Alpha  occ. eigenvalues --   -0.43987  -0.43484  -0.43290  -0.42125  -0.41384
 Alpha  occ. eigenvalues --   -0.40943  -0.40643  -0.40437  -0.39170  -0.38596
 Alpha  occ. eigenvalues --   -0.38142  -0.36731  -0.36460  -0.36206  -0.35324
 Alpha  occ. eigenvalues --   -0.34630  -0.34198  -0.34115  -0.32167  -0.31404
 Alpha  occ. eigenvalues --   -0.31145  -0.27193  -0.26346  -0.24166  -0.23674
 Alpha  occ. eigenvalues --   -0.23602  -0.20910  -0.20524  -0.19758  -0.16539
 Alpha virt. eigenvalues --   -0.13709  -0.07383  -0.07246  -0.03772  -0.02131
 Alpha virt. eigenvalues --   -0.00424  -0.00097   0.00567   0.01138   0.01525
 Alpha virt. eigenvalues --    0.02572   0.03294   0.03927   0.04532   0.05171

 Mulliken atomic charges:
              1
     1  C   -0.003275
     2  C    0.246108
     3  C   -0.139541
     4  C    0.051158
     5  C   -0.250425
     6  C    0.111679
     7  C    0.158342
     8  C    0.066865
     9  N   -0.300279
    10  C    0.076183
    11  C   -0.060409
    12  C   -0.041204
    13  C    0.061062
    14  C    0.070219
    15  N   -0.248483
    16  C    0.064039
    17  C    0.143447
    18  C   -0.124300
    19  C    0.209872
    20  C   -0.016834
    21  C    0.106555
    22  C   -0.247647
    23  C    0.041446
    24  S    0.990179
    25  S    0.995505
    26  O   -0.409946
    27  O   -0.324427
    28  O   -0.437824
    29  O   -0.522191
    30  O   -0.518516
    31  O   -0.517029
    32  H   -0.005864
    33  H   -0.014393
    34  H    0.004650
    35  H    0.080911
    36  H    0.081803
    37  H    0.055060
    38  H    0.058266
    39  H    0.058740
    40  H   -0.032066
    41  H   -0.025346
    42  H   -0.008939
    43  H    0.067917
    44  H    0.073901
    45  H    0.057838
    46  H    0.080135
    47  H    0.080661
    48  H   -0.030351
    49  H    0.004071
    50  H   -0.008485
    51  H    0.191162
 Sum of Mulliken atomic charges =   0.00000

 Dipole moment (field-independent basis, Debye):
    X=             21.5579    Y=             18.8500    Z=              0.6772  Tot=             28.6448
 Quadrupole moment (field-independent basis, Debye-Ang):
   XX=           -383.3692   YY=           -179.4556   ZZ=           -202.6905
   XY=            -67.9183   XZ=             20.1849   YZ=             -4.3939

 Normal termination of Gaussian 09 at Fri Mar 20 04:15:04 2015.
