 Gaussian 09, Revision B.01,
 Gaussian 09:  EM64L-G09RevB.01 12-Aug-2010

 ------------------------------------------------------
 # opt=modredundant B3LYP/cc-pVDZ Geom=PrintInputOrient
 ------------------------------------------------------

 -------------------------------
 CY3 Dihedral Scan at MP2/6-31G*
 -------------------------------
 Symbolic Z-matrix:
 Charge =  0 Multiplicity = 1

 SCF Done:  E(RB3LYP) =  -2169.39489223     A.U. after   31 cycles
 SCF Done:  E(RB3LYP) =  -2169.39489901     A.U. after    8 cycles
 Optimization completed.
    -- Stationary point found.
 SCF Done:  E(RB3LYP) =  -2169.38819872     A.U. after   14 cycles
 SCF Done:  E(RB3LYP) =  -2169.39112300     A.U. after   12 cycles
 SCF Done:  E(RB3LYP) =  -2169.39197920     A.U. after   12 cycles
 SCF Done:  E(RB3LYP) =  -2169.39202980     A.U. after   11 cycles
 SCF Done:  E(RB3LYP) =  -2169.39205273     A.U. after   11 cycles
 SCF Done:  E(RB3LYP) =  -2169.39207725     A.U. after   10 cycles
 SCF Done:  E(RB3LYP) =  -2169.39211421     A.U. after   11 cycles
 SCF Done:  E(RB3LYP) =  -2169.39214797     A.U. after   11 cycles
 Optimization completed.
    -- Stationary point found.
 SCF Done:  E(RB3LYP) =  -2169.38288129     A.U. after    8 cycles
 SCF Done:  E(RB3LYP) =  -2169.38288203     A.U. after   10 cycles
 SCF Done:  E(RB3LYP) =  -2169.38288341     A.U. after   11 cycles
 SCF Done:  E(RB3LYP) =  -2169.38288363     A.U. after    8 cycles
 SCF Done:  E(RB3LYP) =  -2169.38288382     A.U. after    8 cycles
 SCF Done:  E(RB3LYP) =  -2169.38288377     A.U. after    7 cycles
 SCF Done:  E(RB3LYP) =  -2169.38288376     A.U. after    7 cycles
 SCF Done:  E(RB3LYP) =  -2169.38288390     A.U. after    7 cycles
 SCF Done:  E(RB3LYP) =  -2169.38288397     A.U. after    7 cycles
 SCF Done:  E(RB3LYP) =  -2169.38288397     A.U. after    7 cycles
 Optimization completed.
    -- Stationary point found.

                         Standard orientation:
 ---------------------------------------------------------------------
 Center     Atomic      Atomic             Coordinates (Angstroms)
 Number     Number       Type             X           Y           Z
 ---------------------------------------------------------------------
      1          6           0        6.101144    1.594554   -0.291736
      2          6           0        4.727301    1.423735   -0.439201
      3          6           0        4.116250    0.151277   -0.395090
      4          6           0        4.884337   -0.985291   -0.229799
      5          6           0        6.268386   -0.810403   -0.040008
      6          6           0        6.877869    0.442234   -0.099184
      7          6           0        2.702355    0.360202   -0.890165
      8          6           0        2.456745    1.787159   -0.441168
      9          7           0        3.703185    2.398046   -0.472590
     10          6           0        3.934466    3.811423   -0.238231
     11          6           0        1.276040    2.419475   -0.138687
     12          6           0       -1.182789    2.397113    0.149420
     13          6           0        0.009402    1.778604   -0.161008
     14          6           0       -3.866268    3.667988    0.802287
     15          7           0       -3.614249    2.281352    0.430254
     16          6           0       -2.429225    1.725193    0.138074
     17          6           0       -2.659286    0.265022   -0.192221
     18          6           0       -4.148304    0.100682   -0.030281
     19          6           0       -4.676104    1.344619    0.349910
     20          6           0       -6.035086    1.544401    0.605870
     21          6           0       -6.870783    0.436368    0.455315
     22          6           0       -6.359962   -0.810821    0.057426
     23          6           0       -4.986959   -0.992381   -0.175218
     24         16           0       -7.506773   -2.228987   -0.197444
     25         16           0        7.291608   -2.255889    0.225463
     26          8           0        8.696465   -1.893826   -0.021416
     27          8           0        7.080820   -2.438034    1.868346
     28          8           0        6.664035   -3.438278   -0.404238
     29          8           0       -7.967638   -1.977554   -1.603033
     30          8           0       -6.614578   -3.421416   -0.021278
     31          8           0       -8.544994   -2.021086    0.862113
     32          1           0        6.572927    2.577239   -0.306065
     33          1           0        4.455260   -1.987967   -0.252006
     34          1           0        7.959251    0.514638    0.019029
     35          1           0        1.966209   -0.356896   -0.504061
     36          1           0        2.684975    0.313477   -1.993608
     37          1           0        4.908838    4.095003   -0.656431
     38          1           0        3.162606    4.403742   -0.748773
     39          1           0        3.924553    4.056091    0.838575
     40          1           0        1.305647    3.472637    0.150943
     41          1           0       -1.158028    3.453208    0.425462
     42          1           0       -0.014912    0.721611   -0.441494
     43          1           0       -4.654939    4.074691    0.153332
     44          1           0       -4.209342    3.714564    1.846941
     45          1           0       -2.961925    4.272301    0.686977
     46          1           0       -2.082508   -0.380860    0.490520
     47          1           0       -2.313767    0.041628   -1.215540
     48          1           0       -6.433965    2.510625    0.919943
     49          1           0       -7.940522    0.506228    0.659512
     50          1           0       -4.636908   -1.990227   -0.447458
     51          1           0        6.936578   -3.394878    2.000454
 ---------------------------------------------------------------------

 The electronic state is 1-A.
 Alpha  occ. eigenvalues --  -89.14879 -89.01817 -19.21028 -19.16606 -19.16509
 Alpha  occ. eigenvalues --  -19.02894 -19.02848 -19.02795 -14.46284 -14.44481
 Alpha  occ. eigenvalues --  -10.31298 -10.30960 -10.29385 -10.28925 -10.28829
 Alpha  occ. eigenvalues --  -10.27164 -10.26822 -10.26487 -10.25740 -10.25685
 Alpha  occ. eigenvalues --  -10.25573 -10.25416 -10.25366 -10.25313 -10.25302
 Alpha  occ. eigenvalues --  -10.24970 -10.22189 -10.21499 -10.19615 -10.19469
 Alpha  occ. eigenvalues --  -10.18987  -8.18038  -8.04653  -6.14462  -6.14308
 Alpha  occ. eigenvalues --   -6.14165  -6.00983  -6.00956  -6.00947  -1.15728
 Alpha  occ. eigenvalues --   -1.05938  -1.05380  -1.05188  -1.03019  -1.01720
 Alpha  occ. eigenvalues --   -0.92054  -0.88919  -0.88461  -0.88194  -0.87989
 Alpha  occ. eigenvalues --   -0.86848  -0.84805  -0.82608  -0.80954  -0.78205
 Alpha  occ. eigenvalues --   -0.77356  -0.76202  -0.75034  -0.73673  -0.71472
 Alpha  occ. eigenvalues --   -0.68384  -0.66170  -0.64910  -0.63024  -0.62497
 Alpha  occ. eigenvalues --   -0.60783  -0.60263  -0.58439  -0.57240  -0.56912
 Alpha  occ. eigenvalues --   -0.55036  -0.54640  -0.54029  -0.53584  -0.53436
 Alpha  occ. eigenvalues --   -0.52334  -0.51272  -0.50692  -0.49433  -0.49127
 Alpha  occ. eigenvalues --   -0.48730  -0.48643  -0.48260  -0.47451  -0.46947
 Alpha  occ. eigenvalues --   -0.46894  -0.46250  -0.45479  -0.45314  -0.44316
 Alpha  occ. eigenvalues --   -0.44139  -0.43620  -0.43044  -0.42284  -0.41562
 Alpha  occ. eigenvalues --   -0.41047  -0.40421  -0.40083  -0.39037  -0.38428
 Alpha  occ. eigenvalues --   -0.38313  -0.36769  -0.36421  -0.36143  -0.35412
 Alpha  occ. eigenvalues --   -0.34821  -0.34090  -0.33912  -0.32131  -0.31393
 Alpha  occ. eigenvalues --   -0.30931  -0.27362  -0.26787  -0.24488  -0.23755
 Alpha  occ. eigenvalues --   -0.23647  -0.20983  -0.20676  -0.19764  -0.16584
 Alpha virt. eigenvalues --   -0.13917  -0.07694  -0.07083  -0.04005  -0.02049
 Alpha virt. eigenvalues --   -0.00431  -0.00024   0.00459   0.01179   0.01367
 Alpha virt. eigenvalues --    0.02201   0.03066   0.03535   0.04679   0.04822

 Mulliken atomic charges:
              1
     1  C    0.002804
     2  C    0.222334
     3  C   -0.108953
     4  C    0.056454
     5  C   -0.250959
     6  C    0.105920
     7  C    0.114165
     8  C    0.099126
     9  N   -0.298853
    10  C    0.072729
    11  C   -0.048410
    12  C   -0.038096
    13  C    0.066414
    14  C    0.072288
    15  N   -0.250189
    16  C    0.058816
    17  C    0.149972
    18  C   -0.110309
    19  C    0.213861
    20  C   -0.008939
    21  C    0.113376
    22  C   -0.242797
    23  C    0.037957
    24  S    0.986400
    25  S    0.995976
    26  O   -0.410312
    27  O   -0.324458
    28  O   -0.438846
    29  O   -0.516430
    30  O   -0.524383
    31  O   -0.519778
    32  H   -0.010393
    33  H   -0.008075
    34  H    0.006900
    35  H    0.047113
    36  H    0.083320
    37  H    0.058983
    38  H    0.056902
    39  H    0.052331
    40  H   -0.026978
    41  H   -0.021864
    42  H   -0.010464
    43  H    0.074112
    44  H    0.071978
    45  H    0.055278
    46  H    0.082461
    47  H    0.083308
    48  H   -0.031245
    49  H   -0.006180
    50  H   -0.025297
    51  H    0.190927
 Sum of Mulliken atomic charges =   0.00000

 Dipole moment (field-independent basis, Debye):
    X=             21.2838    Y=             18.9893    Z=              2.0828  Tot=             28.5995
 Quadrupole moment (field-independent basis, Debye-Ang):
   XX=           -389.9590   YY=           -181.7004   ZZ=           -198.1590
   XY=            -61.3924   XZ=             -8.0006   YZ=             -4.4747

 Normal termination of Gaussian 09 at Sat Mar 21 07:57:47 2015.
