 Gaussian 09, Revision B.01,
 Gaussian 09:  EM64L-G09RevB.01 12-Aug-2010

 ------------------------------------------------------
 # opt=modredundant B3LYP/cc-pVDZ Geom=PrintInputOrient
 ------------------------------------------------------

 -------------------------------
 CY3 Dihedral Scan at MP2/6-31G*
 -------------------------------
 Symbolic Z-matrix:
 Charge =  0 Multiplicity = 1

 SCF Done:  E(RB3LYP) =  -2169.39489223     A.U. after   31 cycles
 SCF Done:  E(RB3LYP) =  -2169.39489903     A.U. after    8 cycles
 SCF Done:  E(RB3LYP) =  -2169.39489944     A.U. after    8 cycles
 Optimization completed.
    -- Stationary point found.
 SCF Done:  E(RB3LYP) =  -2169.39229890     A.U. after   18 cycles
 SCF Done:  E(RB3LYP) =  -2169.39225672     A.U. after   10 cycles
 SCF Done:  E(RB3LYP) =  -2169.39293533     A.U. after   12 cycles
 SCF Done:  E(RB3LYP) =  -2169.39298895     A.U. after   12 cycles
 SCF Done:  E(RB3LYP) =  -2169.39300215     A.U. after   11 cycles
 SCF Done:  E(RB3LYP) =  -2169.39300847     A.U. after   11 cycles
 SCF Done:  E(RB3LYP) =  -2169.39301004     A.U. after    8 cycles
 Optimization completed.
    -- Stationary point found.
 SCF Done:  E(RB3LYP) =  -2169.38733322     A.U. after   12 cycles
 SCF Done:  E(RB3LYP) =  -2169.38739564     A.U. after   11 cycles
 SCF Done:  E(RB3LYP) =  -2169.38740062     A.U. after   11 cycles
 SCF Done:  E(RB3LYP) =  -2169.38740311     A.U. after   10 cycles
 SCF Done:  E(RB3LYP) =  -2169.38740476     A.U. after   12 cycles
 SCF Done:  E(RB3LYP) =  -2169.38740629     A.U. after    8 cycles
 SCF Done:  E(RB3LYP) =  -2169.38740630     A.U. after   11 cycles
 SCF Done:  E(RB3LYP) =  -2169.38740664     A.U. after   10 cycles
 SCF Done:  E(RB3LYP) =  -2169.38740660     A.U. after    7 cycles
 SCF Done:  E(RB3LYP) =  -2169.38740656     A.U. after    7 cycles
 Optimization completed.
    -- Stationary point found.

                         Standard orientation:
 ---------------------------------------------------------------------
 Center     Atomic      Atomic             Coordinates (Angstroms)
 Number     Number       Type             X           Y           Z
 ---------------------------------------------------------------------
      1          6           0       -6.033872    1.627084    0.293296
      2          6           0       -4.658188    1.416868    0.186117
      3          6           0       -4.111538    0.127608    0.038699
      4          6           0       -4.937648   -0.981833   -0.008526
      5          6           0       -6.322281   -0.767498    0.084465
      6          6           0       -6.870277    0.506262    0.243615
      7          6           0       -2.609780    0.253482   -0.030562
      8          6           0       -2.387834    1.751814    0.085483
      9          7           0       -3.614859    2.358525    0.210113
     10          6           0       -3.787808    3.793987    0.347360
     11          6           0       -1.185662    2.427139    0.071255
     12          6           0        1.287274    2.426319   -0.089052
     13          6           0        0.067054    1.780816   -0.065262
     14          6           0        3.997811    3.759554   -0.149867
     15          7           0        3.726036    2.331231   -0.252716
     16          6           0        2.521023    1.745544   -0.212829
     17          6           0        2.722944    0.248591   -0.294795
     18          6           0        4.209923    0.099928   -0.519576
     19          6           0        4.773524    1.377207   -0.344035
     20          6           0        6.138530    1.586582   -0.121534
     21          6           0        6.934446    0.449328    0.019195
     22          6           0        6.382127   -0.838187   -0.099122
     23          6           0        5.043911   -1.012067   -0.476544
     24         16           0        7.419707   -2.322839    0.238534
     25         16           0       -7.418812   -2.182700    0.039510
     26          8           0       -8.729167   -1.785314    0.579008
     27          8           0       -7.560822   -2.352178   -1.612394
     28          8           0       -6.706245   -3.386121    0.520533
     29          8           0        7.184043   -2.493534    1.710939
     30          8           0        6.801537   -3.376104   -0.631004
     31          8           0        8.798802   -1.878725   -0.141136
     32          1           0       -6.463820    2.620765    0.419533
     33          1           0       -4.543947   -1.994725   -0.102932
     34          1           0       -7.951033    0.615026    0.336195
     35          1           0       -2.199049   -0.137942   -0.975606
     36          1           0       -2.106427   -0.287509    0.787676
     37          1           0       -4.854327    4.032433    0.417276
     38          1           0       -3.285086    4.159842    1.257116
     39          1           0       -3.367567    4.319085   -0.525431
     40          1           0       -1.189612    3.514888    0.166665
     41          1           0        1.297704    3.513959    0.007514
     42          1           0        0.063167    0.690362   -0.157335
     43          1           0        4.267294    4.024661    0.884584
     44          1           0        4.838201    4.007139   -0.811220
     45          1           0        3.122606    4.339453   -0.462202
     46          1           0        2.084842   -0.200716   -1.072976
     47          1           0        2.437133   -0.216042    0.664571
     48          1           0        6.563129    2.585779   -0.007114
     49          1           0        8.001317    0.527246    0.235883
     50          1           0        4.674404   -2.033612   -0.594226
     51          1           0       -7.528730   -3.315141   -1.772712
 ---------------------------------------------------------------------

 The electronic state is 1-A.
 Alpha  occ. eigenvalues --  -89.14991 -89.01722 -19.21144 -19.16715 -19.16612
 Alpha  occ. eigenvalues --  -19.02792 -19.02763 -19.02635 -14.45809 -14.45130
 Alpha  occ. eigenvalues --  -10.31057 -10.30919 -10.29706 -10.29264 -10.28563
 Alpha  occ. eigenvalues --  -10.26998 -10.26944 -10.26615 -10.25992 -10.25852
 Alpha  occ. eigenvalues --  -10.25665 -10.25514 -10.25185 -10.25158 -10.24981
 Alpha  occ. eigenvalues --  -10.24607 -10.22018 -10.21289 -10.19515 -10.19326
 Alpha  occ. eigenvalues --  -10.18823  -8.18152  -8.04555  -6.14575  -6.14420
 Alpha  occ. eigenvalues --   -6.14281  -6.00887  -6.00858  -6.00848  -1.15830
 Alpha  occ. eigenvalues --   -1.05972  -1.05588  -1.05300  -1.03125  -1.01610
 Alpha  occ. eigenvalues --   -0.92330  -0.88802  -0.88373  -0.88063  -0.87746
 Alpha  occ. eigenvalues --   -0.86821  -0.84745  -0.82719  -0.80973  -0.78236
 Alpha  occ. eigenvalues --   -0.77196  -0.76515  -0.74887  -0.73539  -0.71616
 Alpha  occ. eigenvalues --   -0.68278  -0.66402  -0.65069  -0.63084  -0.62260
 Alpha  occ. eigenvalues --   -0.60829  -0.59981  -0.58681  -0.57257  -0.56763
 Alpha  occ. eigenvalues --   -0.54774  -0.54478  -0.54170  -0.53981  -0.53314
 Alpha  occ. eigenvalues --   -0.52146  -0.51446  -0.50933  -0.49788  -0.49095
 Alpha  occ. eigenvalues --   -0.48566  -0.48417  -0.48253  -0.47478  -0.47137
 Alpha  occ. eigenvalues --   -0.46585  -0.46141  -0.45500  -0.45250  -0.44483
 Alpha  occ. eigenvalues --   -0.43860  -0.43507  -0.43347  -0.42242  -0.41462
 Alpha  occ. eigenvalues --   -0.40931  -0.40666  -0.40350  -0.39105  -0.38447
 Alpha  occ. eigenvalues --   -0.38240  -0.36703  -0.36287  -0.36183  -0.35334
 Alpha  occ. eigenvalues --   -0.34511  -0.34193  -0.34131  -0.32155  -0.31423
 Alpha  occ. eigenvalues --   -0.31185  -0.27308  -0.26437  -0.24233  -0.23638
 Alpha  occ. eigenvalues --   -0.23507  -0.20853  -0.20556  -0.19661  -0.16477
 Alpha virt. eigenvalues --   -0.13720  -0.07401  -0.07264  -0.03836  -0.02357
 Alpha virt. eigenvalues --   -0.00331  -0.00111   0.00565   0.01127   0.01526
 Alpha virt. eigenvalues --    0.02534   0.03283   0.03923   0.04561   0.05132

 Mulliken atomic charges:
              1
     1  C   -0.003183
     2  C    0.246332
     3  C   -0.139789
     4  C    0.052172
     5  C   -0.250320
     6  C    0.111485
     7  C    0.158345
     8  C    0.067330
     9  N   -0.300299
    10  C    0.076114
    11  C   -0.060853
    12  C   -0.037789
    13  C    0.061881
    14  C    0.070738
    15  N   -0.244890
    16  C    0.070358
    17  C    0.127262
    18  C   -0.109488
    19  C    0.191857
    20  C   -0.002145
    21  C    0.107313
    22  C   -0.239184
    23  C    0.047789
    24  S    0.987000
    25  S    0.995247
    26  O   -0.410012
    27  O   -0.324913
    28  O   -0.437016
    29  O   -0.521165
    30  O   -0.522910
    31  O   -0.518876
    32  H   -0.005688
    33  H   -0.014346
    34  H    0.004810
    35  H    0.079924
    36  H    0.083536
    37  H    0.055160
    38  H    0.059120
    39  H    0.058287
    40  H   -0.031790
    41  H   -0.025246
    42  H   -0.010080
    43  H    0.069225
    44  H    0.072293
    45  H    0.058437
    46  H    0.066595
    47  H    0.093533
    48  H   -0.030001
    49  H   -0.004177
    50  H   -0.019004
    51  H    0.191022
 Sum of Mulliken atomic charges =   0.00000

 Dipole moment (field-independent basis, Debye):
    X=            -21.5086    Y=             19.2673    Z=             -2.6161  Tot=             28.9947
 Quadrupole moment (field-independent basis, Debye-Ang):
   XX=           -378.4984   YY=           -182.1678   ZZ=           -201.1859
   XY=             67.3982   XZ=              1.4942   YZ=             12.3458

 Normal termination of Gaussian 09 at Fri Mar 20 00:37:29 2015.
