 Gaussian 09, Revision B.01,
 Gaussian 09:  EM64L-G09RevB.01 12-Aug-2010

 ------------------------------------------------------
 # opt=modredundant B3LYP/cc-pVDZ Geom=PrintInputOrient
 ------------------------------------------------------

 -------------------------------
 CY3 Dihedral Scan at MP2/6-31G*
 -------------------------------
 Symbolic Z-matrix:
 Charge =  0 Multiplicity = 1

 SCF Done:  E(RB3LYP) =  -2169.39489223     A.U. after   31 cycles
 SCF Done:  E(RB3LYP) =  -2169.39489903     A.U. after    8 cycles
 SCF Done:  E(RB3LYP) =  -2169.39489944     A.U. after    8 cycles
 Optimization completed.
    -- Stationary point found.
 SCF Done:  E(RB3LYP) =  -2169.38966050     A.U. after   13 cycles
 SCF Done:  E(RB3LYP) =  -2169.39406091     A.U. after   14 cycles
 SCF Done:  E(RB3LYP) =  -2169.39440403     A.U. after   12 cycles
 SCF Done:  E(RB3LYP) =  -2169.39443277     A.U. after   11 cycles
 SCF Done:  E(RB3LYP) =  -2169.39443726     A.U. after    8 cycles
 SCF Done:  E(RB3LYP) =  -2169.39443939     A.U. after    8 cycles
 SCF Done:  E(RB3LYP) =  -2169.39444378     A.U. after   10 cycles
 Optimization completed.
 SCF Done:  E(RB3LYP) =  -2169.38988613     A.U. after   13 cycles
 SCF Done:  E(RB3LYP) =  -2169.39012904     A.U. after   12 cycles
 SCF Done:  E(RB3LYP) =  -2169.39013497     A.U. after   10 cycles
 SCF Done:  E(RB3LYP) =  -2169.39013532     A.U. after    8 cycles
 SCF Done:  E(RB3LYP) =  -2169.39013534     A.U. after    7 cycles
    -- Stationary point found.
 SCF Done:  E(RB3LYP) =  -2169.38396186     A.U. after   13 cycles
 SCF Done:  E(RB3LYP) =  -2169.38893382     A.U. after   13 cycles
 SCF Done:  E(RB3LYP) =  -2169.38933010     A.U. after   12 cycles
 SCF Done:  E(RB3LYP) =  -2169.38933865     A.U. after   10 cycles
 SCF Done:  E(RB3LYP) =  -2169.38933897     A.U. after    8 cycles
 Optimization completed.
    -- Stationary point found.

                         Standard orientation:
 ---------------------------------------------------------------------
 Center     Atomic      Atomic             Coordinates (Angstroms)
 Number     Number       Type             X           Y           Z
 ---------------------------------------------------------------------
      1          6           0       -6.059801    1.625468   -0.015547
      2          6           0       -4.681961    1.414024   -0.010957
      3          6           0       -4.131801    0.118451   -0.006204
      4          6           0       -4.956296   -0.992446   -0.003895
      5          6           0       -6.347434   -0.782107   -0.011534
      6          6           0       -6.896313    0.501200   -0.012540
      7          6           0       -2.628015    0.240857   -0.004200
      8          6           0       -2.408525    1.744333   -0.005818
      9          7           0       -3.638506    2.356940   -0.010409
     10          6           0       -3.816149    3.798029   -0.009449
     11          6           0       -1.205869    2.418992   -0.001736
     12          6           0        1.271138    2.418312    0.007124
     13          6           0        0.052519    1.769375    0.000040
     14          6           0        4.006861    3.747690    0.050779
     15          7           0        3.719336    2.319679    0.020297
     16          6           0        2.510349    1.736921    0.003855
     17          6           0        2.709087    0.234752   -0.024053
     18          6           0        4.208301    0.080299   -0.022961
     19          6           0        4.769866    1.366671    0.001162
     20          6           0        6.148161    1.591342   -0.009172
     21          6           0        6.967848    0.460610   -0.034281
     22          6           0        6.421080   -0.832959   -0.041107
     23          6           0        5.030739   -1.033652   -0.051453
     24         16           0        7.533821   -2.299852    0.003128
     25         16           0       -7.371550   -2.262516    0.044228
     26          8           0       -7.263242   -2.857105    1.382082
     27          8           0       -8.895984   -1.607086   -0.094323
     28          8           0       -7.134472   -3.061671   -1.176247
     29          8           0        7.692144   -2.495494    1.482374
     30          8           0        6.727440   -3.354208   -0.695106
     31          8           0        8.759480   -1.824574   -0.715150
     32          1           0       -6.496273    2.624342   -0.017644
     33          1           0       -4.546411   -2.003864   -0.002144
     34          1           0       -7.978163    0.625318   -0.009744
     35          1           0       -2.168703   -0.229894   -0.888907
     36          1           0       -2.171276   -0.227168    0.883196
     37          1           0       -4.884668    4.038086   -0.015326
     38          1           0       -3.361388    4.244617    0.889511
     39          1           0       -3.350796    4.246906   -0.901777
     40          1           0       -1.214029    3.510942    0.000262
     41          1           0        1.271066    3.510169    0.012204
     42          1           0        0.054869    0.675032   -0.004987
     43          1           0        4.663644    3.964503    0.905721
     44          1           0        4.525574    4.039345   -0.874965
     45          1           0        3.085436    4.328511    0.150151
     46          1           0        2.236383   -0.200803   -0.920089
     47          1           0        2.231684   -0.234960    0.852132
     48          1           0        6.575386    2.595753   -0.008229
     49          1           0        8.055042    0.551100   -0.065389
     50          1           0        4.655050   -2.057930   -0.095321
     51          1           0       -9.210213   -1.894320   -0.972918
 ---------------------------------------------------------------------

 The electronic state is 1-A.
 Alpha  occ. eigenvalues --  -89.15229 -89.01556 -19.22230 -19.16757 -19.16576
 Alpha  occ. eigenvalues --  -19.02620 -19.02598 -19.02516 -14.45863 -14.45058
 Alpha  occ. eigenvalues --  -10.30995 -10.30976 -10.29581 -10.29261 -10.28545
 Alpha  occ. eigenvalues --  -10.26968 -10.26875 -10.26873 -10.26024 -10.25927
 Alpha  occ. eigenvalues --  -10.25733 -10.25563 -10.25099 -10.25031 -10.24928
 Alpha  occ. eigenvalues --  -10.24539 -10.21870 -10.21206 -10.19377 -10.19132
 Alpha  occ. eigenvalues --  -10.18680  -8.18377  -8.04391  -6.14828  -6.14628
 Alpha  occ. eigenvalues --   -6.14494  -6.00721  -6.00695  -6.00686  -1.16255
 Alpha  occ. eigenvalues --   -1.06103  -1.05912  -1.05561  -1.03160  -1.01451
 Alpha  occ. eigenvalues --   -0.92346  -0.88761  -0.88197  -0.87922  -0.87685
 Alpha  occ. eigenvalues --   -0.86814  -0.84732  -0.82701  -0.80964  -0.78201
 Alpha  occ. eigenvalues --   -0.77159  -0.76480  -0.74884  -0.73509  -0.71530
 Alpha  occ. eigenvalues --   -0.68190  -0.66665  -0.65180  -0.63328  -0.62312
 Alpha  occ. eigenvalues --   -0.60784  -0.60149  -0.59046  -0.57501  -0.56626
 Alpha  occ. eigenvalues --   -0.54760  -0.54159  -0.54136  -0.53910  -0.53245
 Alpha  occ. eigenvalues --   -0.52007  -0.51297  -0.51153  -0.49814  -0.49661
 Alpha  occ. eigenvalues --   -0.48574  -0.48409  -0.48385  -0.47561  -0.46796
 Alpha  occ. eigenvalues --   -0.46616  -0.46244  -0.45920  -0.45227  -0.44763
 Alpha  occ. eigenvalues --   -0.43970  -0.43438  -0.43359  -0.42001  -0.41296
 Alpha  occ. eigenvalues --   -0.40947  -0.40759  -0.40384  -0.38983  -0.38801
 Alpha  occ. eigenvalues --   -0.38127  -0.36682  -0.36349  -0.36148  -0.35515
 Alpha  occ. eigenvalues --   -0.34555  -0.34388  -0.33918  -0.32822  -0.31455
 Alpha  occ. eigenvalues --   -0.30762  -0.27172  -0.26506  -0.24100  -0.23493
 Alpha  occ. eigenvalues --   -0.23385  -0.20691  -0.20447  -0.19487  -0.16326
 Alpha virt. eigenvalues --   -0.13636  -0.07332  -0.06854  -0.03601  -0.01789
 Alpha virt. eigenvalues --   -0.00707  -0.00044   0.00034   0.00946   0.01527
 Alpha virt. eigenvalues --    0.02420   0.02654   0.03569   0.04342   0.04619

 Mulliken atomic charges:
              1
     1  C   -0.003146
     2  C    0.245539
     3  C   -0.144102
     4  C    0.065421
     5  C   -0.242986
     6  C    0.107928
     7  C    0.158743
     8  C    0.066156
     9  N   -0.300012
    10  C    0.076401
    11  C   -0.060940
    12  C   -0.038827
    13  C    0.061800
    14  C    0.073016
    15  N   -0.251887
    16  C    0.059028
    17  C    0.150013
    18  C   -0.112716
    19  C    0.214424
    20  C   -0.008740
    21  C    0.108529
    22  C   -0.242619
    23  C    0.041979
    24  S    0.985909
    25  S    0.987880
    26  O   -0.400927
    27  O   -0.324048
    28  O   -0.438966
    29  O   -0.517911
    30  O   -0.525508
    31  O   -0.520821
    32  H   -0.008173
    33  H   -0.009696
    34  H   -0.006673
    35  H    0.081934
    36  H    0.082739
    37  H    0.054061
    38  H    0.058659
    39  H    0.058084
    40  H   -0.032620
    41  H   -0.023947
    42  H   -0.008359
    43  H    0.072912
    44  H    0.071032
    45  H    0.053991
    46  H    0.081312
    47  H    0.081836
    48  H   -0.032530
    49  H   -0.006957
    50  H   -0.026250
    51  H    0.190035
 Sum of Mulliken atomic charges =   0.00000

 Dipole moment (field-independent basis, Debye):
    X=            -24.1101    Y=             20.8212    Z=             -1.6161  Tot=             31.8972
 Quadrupole moment (field-independent basis, Debye-Ang):
   XX=           -351.3321   YY=           -192.4777   ZZ=           -204.7623
   XY=             58.3118   XZ=             13.6938   YZ=              3.0602

 Normal termination of Gaussian 09 at Tue Mar 17 19:35:00 2015.
