 Gaussian 09, Revision B.01,
 Gaussian 09:  EM64L-G09RevB.01 12-Aug-2010

 ------------------------------------------------------
 # opt=modredundant B3LYP/cc-pVDZ Geom=PrintInputOrient
 ------------------------------------------------------

 -------------------------------
 CY3 Dihedral Scan at MP2/6-31G*
 -------------------------------
 Symbolic Z-matrix:
 Charge =  0 Multiplicity = 1

 SCF Done:  E(RB3LYP) =  -2169.39489223     A.U. after   31 cycles
 SCF Done:  E(RB3LYP) =  -2169.39489903     A.U. after    8 cycles
 SCF Done:  E(RB3LYP) =  -2169.39489944     A.U. after    8 cycles
 Optimization completed.
    -- Stationary point found.
 SCF Done:  E(RB3LYP) =  -2169.39255237     A.U. after   17 cycles
 SCF Done:  E(RB3LYP) =  -2169.39254946     A.U. after    9 cycles
 SCF Done:  E(RB3LYP) =  -2169.39310949     A.U. after   15 cycles
 SCF Done:  E(RB3LYP) =  -2169.39315495     A.U. after   12 cycles
 SCF Done:  E(RB3LYP) =  -2169.39316124     A.U. after    9 cycles
 SCF Done:  E(RB3LYP) =  -2169.39316324     A.U. after   10 cycles
 SCF Done:  E(RB3LYP) =  -2169.39316422     A.U. after    8 cycles
 Optimization completed on the basis of negligible forces.
    -- Stationary point found.
 SCF Done:  E(RB3LYP) =  -2169.38820668     A.U. after   13 cycles
 SCF Done:  E(RB3LYP) =  -2169.38825608     A.U. after   13 cycles
 SCF Done:  E(RB3LYP) =  -2169.38827230     A.U. after   11 cycles
 SCF Done:  E(RB3LYP) =  -2169.38827567     A.U. after   10 cycles
 SCF Done:  E(RB3LYP) =  -2169.38827655     A.U. after   10 cycles
 SCF Done:  E(RB3LYP) =  -2169.38827668     A.U. after    8 cycles
 SCF Done:  E(RB3LYP) =  -2169.38827670     A.U. after    5 cycles
 SCF Done:  E(RB3LYP) =  -2169.38827677     A.U. after    7 cycles
 SCF Done:  E(RB3LYP) =  -2169.38827684     A.U. after    7 cycles
 SCF Done:  E(RB3LYP) =  -2169.38827685     A.U. after    7 cycles
 Optimization completed.
    -- Stationary point found.

                         Standard orientation:
 ---------------------------------------------------------------------
 Center     Atomic      Atomic             Coordinates (Angstroms)
 Number     Number       Type             X           Y           Z
 ---------------------------------------------------------------------
      1          6           0       -6.062521    1.632863    0.121475
      2          6           0       -4.685421    1.415546    0.055985
      3          6           0       -4.136609    0.119810    0.011039
      4          6           0       -4.962773   -0.990694    0.026217
      5          6           0       -6.348544   -0.770566    0.077513
      6          6           0       -6.898730    0.510951    0.135581
      7          6           0       -2.633798    0.242215   -0.035017
      8          6           0       -2.413551    1.744799   -0.012250
      9          7           0       -3.641502    2.357552    0.035521
     10          6           0       -3.818096    3.799174    0.067608
     11          6           0       -1.209210    2.419036   -0.032819
     12          6           0        1.267781    2.411985   -0.106950
     13          6           0        0.044373    1.767159   -0.090230
     14          6           0        3.888554    3.674881    0.387248
     15          7           0        3.704769    2.336100   -0.178557
     16          6           0        2.500124    1.730346   -0.193617
     17          6           0        2.704611    0.230717   -0.225297
     18          6           0        4.202300    0.089208   -0.118563
     19          6           0        4.757924    1.376280   -0.195938
     20          6           0        6.136839    1.596944   -0.214302
     21          6           0        6.959761    0.469863   -0.157965
     22          6           0        6.416121   -0.821178   -0.062283
     23          6           0        5.026445   -1.022986   -0.068369
     24         16           0        7.526709   -2.278863    0.109763
     25         16           0       -7.445242   -2.186339    0.117671
     26          8           0       -8.760797   -1.752809    0.614867
     27          8           0       -7.569637   -2.468212   -1.519864
     28          8           0       -6.737666   -3.352938    0.688246
     29          8           0        7.657742   -2.367337    1.602226
     30          8           0        6.732321   -3.382575   -0.523521
     31          8           0        8.766244   -1.857556   -0.618246
     32          1           0       -6.493329    2.632921    0.170327
     33          1           0       -4.568749   -2.007738    0.012203
     34          1           0       -7.980886    0.625306    0.201071
     35          1           0       -2.203901   -0.208831   -0.944493
     36          1           0       -2.147227   -0.244464    0.826140
     37          1           0       -4.886224    4.040216    0.053284
     38          1           0       -3.372081    4.226515    0.980269
     39          1           0       -3.343202    4.264376   -0.810703
     40          1           0       -1.214973    3.510578   -0.004519
     41          1           0        1.277130    3.503203   -0.068244
     42          1           0        0.043081    0.673313   -0.125131
     43          1           0        3.654624    3.656701    1.462640
     44          1           0        4.929544    3.984925    0.247495
     45          1           0        3.244003    4.404366   -0.120642
     46          1           0        2.314091   -0.210782   -1.158163
     47          1           0        2.156839   -0.241365    0.606758
     48          1           0        6.565931    2.598559   -0.283229
     49          1           0        8.046719    0.560975   -0.193930
     50          1           0        4.650924   -2.047892   -0.038549
     51          1           0       -7.537781   -3.439902   -1.614330
 ---------------------------------------------------------------------

 The electronic state is 1-A.
 Alpha  occ. eigenvalues --  -89.15132 -89.01604 -19.21280 -19.16857 -19.16747
 Alpha  occ. eigenvalues --  -19.02677 -19.02659 -19.02576 -14.45416 -14.45265
 Alpha  occ. eigenvalues --  -10.31320 -10.30690 -10.29889 -10.29452 -10.28344
 Alpha  occ. eigenvalues --  -10.27197 -10.27109 -10.26794 -10.26187 -10.26025
 Alpha  occ. eigenvalues --  -10.25835 -10.25705 -10.25061 -10.24986 -10.24983
 Alpha  occ. eigenvalues --  -10.24837 -10.21796 -10.21130 -10.19362 -10.19088
 Alpha  occ. eigenvalues --  -10.18664  -8.18292  -8.04440  -6.14715  -6.14560
 Alpha  occ. eigenvalues --   -6.14422  -6.00769  -6.00744  -6.00735  -1.15971
 Alpha  occ. eigenvalues --   -1.06226  -1.05438  -1.05075  -1.03267  -1.01498
 Alpha  occ. eigenvalues --   -0.92518  -0.88921  -0.88249  -0.87963  -0.87559
 Alpha  occ. eigenvalues --   -0.86880  -0.84669  -0.82740  -0.81045  -0.78318
 Alpha  occ. eigenvalues --   -0.77122  -0.76504  -0.74736  -0.73512  -0.71688
 Alpha  occ. eigenvalues --   -0.68343  -0.66571  -0.65062  -0.63071  -0.62182
 Alpha  occ. eigenvalues --   -0.60899  -0.59955  -0.58820  -0.57366  -0.56666
 Alpha  occ. eigenvalues --   -0.54708  -0.54507  -0.54380  -0.54019  -0.53097
 Alpha  occ. eigenvalues --   -0.52021  -0.51582  -0.51077  -0.49981  -0.49206
 Alpha  occ. eigenvalues --   -0.48573  -0.48384  -0.48285  -0.47583  -0.47285
 Alpha  occ. eigenvalues --   -0.46434  -0.46090  -0.45650  -0.45137  -0.44609
 Alpha  occ. eigenvalues --   -0.43860  -0.43688  -0.43298  -0.41997  -0.41568
 Alpha  occ. eigenvalues --   -0.41050  -0.40852  -0.40024  -0.39228  -0.38537
 Alpha  occ. eigenvalues --   -0.38114  -0.36672  -0.36310  -0.36142  -0.35226
 Alpha  occ. eigenvalues --   -0.34532  -0.34333  -0.34241  -0.32283  -0.31600
 Alpha  occ. eigenvalues --   -0.31304  -0.27351  -0.26437  -0.24274  -0.23548
 Alpha  occ. eigenvalues --   -0.23438  -0.20736  -0.20497  -0.19516  -0.16378
 Alpha virt. eigenvalues --   -0.14149  -0.07595  -0.07450  -0.03977  -0.01772
 Alpha virt. eigenvalues --   -0.00576  -0.00192   0.00451   0.01051   0.01563
 Alpha virt. eigenvalues --    0.02470   0.03193   0.03755   0.04585   0.05069

 Mulliken atomic charges:
              1
     1  C   -0.002600
     2  C    0.245669
     3  C   -0.139248
     4  C    0.051995
     5  C   -0.250210
     6  C    0.111887
     7  C    0.158694
     8  C    0.068007
     9  N   -0.298917
    10  C    0.075623
    11  C   -0.058625
    12  C   -0.039508
    13  C    0.060375
    14  C    0.069793
    15  N   -0.248126
    16  C    0.071761
    17  C    0.143284
    18  C   -0.098763
    19  C    0.183811
    20  C   -0.008075
    21  C    0.111919
    22  C   -0.242026
    23  C    0.042224
    24  S    0.986000
    25  S    0.995482
    26  O   -0.409526
    27  O   -0.324440
    28  O   -0.436630
    29  O   -0.517758
    30  O   -0.525358
    31  O   -0.519946
    32  H   -0.005089
    33  H   -0.013684
    34  H    0.005339
    35  H    0.081593
    36  H    0.083276
    37  H    0.055848
    38  H    0.059400
    39  H    0.059894
    40  H   -0.030490
    41  H   -0.029694
    42  H   -0.007876
    43  H    0.065956
    44  H    0.066252
    45  H    0.059125
    46  H    0.083134
    47  H    0.075235
    48  H   -0.023384
    49  H   -0.007510
    50  H   -0.025511
    51  H    0.191416
 Sum of Mulliken atomic charges =   0.00000

 Dipole moment (field-independent basis, Debye):
    X=            -22.6844    Y=             18.7852    Z=             -1.9803  Tot=             29.5193
 Quadrupole moment (field-independent basis, Debye-Ang):
   XX=           -386.2973   YY=           -181.1329   ZZ=           -201.8750
   XY=             66.2430   XZ=              8.1176   YZ=             11.0158

 Normal termination of Gaussian 09 at Wed Mar 18 22:40:33 2015.
