 Gaussian 09, Revision B.01,
 Gaussian 09:  EM64L-G09RevB.01 12-Aug-2010

 ------------------------------------------------------
 # opt=modredundant B3LYP/cc-pVDZ Geom=PrintInputOrient
 ------------------------------------------------------

 -------------------------------
 CY3 Dihedral Scan at MP2/6-31G*
 -------------------------------
 Symbolic Z-matrix:
 Charge =  0 Multiplicity = 1

 SCF Done:  E(RB3LYP) =  -2169.39489223     A.U. after   31 cycles
 SCF Done:  E(RB3LYP) =  -2169.39489904     A.U. after    8 cycles
 SCF Done:  E(RB3LYP) =  -2169.39489944     A.U. after    8 cycles
 Optimization completed.
    -- Stationary point found.
 SCF Done:  E(RB3LYP) =  -2169.39320200     A.U. after   16 cycles
 SCF Done:  E(RB3LYP) =  -2169.39307211     A.U. after   13 cycles
 SCF Done:  E(RB3LYP) =  -2169.39331215     A.U. after   13 cycles
 SCF Done:  E(RB3LYP) =  -2169.39331903     A.U. after   11 cycles
 SCF Done:  E(RB3LYP) =  -2169.39332096     A.U. after   10 cycles
 SCF Done:  E(RB3LYP) =  -2169.39332179     A.U. after    8 cycles
 SCF Done:  E(RB3LYP) =  -2169.39332287     A.U. after   10 cycles
 Optimization completed on the basis of negligible forces.
    -- Stationary point found.
 SCF Done:  E(RB3LYP) =  -2169.38861033     A.U. after   11 cycles
 SCF Done:  E(RB3LYP) =  -2169.38744969     A.U. after   17 cycles
 SCF Done:  E(RB3LYP) =  -2169.38876774     A.U. after   17 cycles
 SCF Done:  E(RB3LYP) =  -2169.38881813     A.U. after   16 cycles
 SCF Done:  E(RB3LYP) =  -2169.38891992     A.U. after   13 cycles
 SCF Done:  E(RB3LYP) =  -2169.38892262     A.U. after   11 cycles
 SCF Done:  E(RB3LYP) =  -2169.38892469     A.U. after   11 cycles
 SCF Done:  E(RB3LYP) =  -2169.38892529     A.U. after   10 cycles
 SCF Done:  E(RB3LYP) =  -2169.38892538     A.U. after    8 cycles
 SCF Done:  E(RB3LYP) =  -2169.38892542     A.U. after    6 cycles
 Optimization completed.
    -- Stationary point found.

                         Standard orientation:
 ---------------------------------------------------------------------
 Center     Atomic      Atomic             Coordinates (Angstroms)
 Number     Number       Type             X           Y           Z
 ---------------------------------------------------------------------
      1          6           0        5.911663    1.527413    0.761252
      2          6           0        4.582803    1.381027    0.360425
      3          6           0        4.104955    0.187182   -0.212743
      4          6           0        4.954290   -0.890477   -0.395211
      5          6           0        6.287994   -0.746145    0.019234
      6          6           0        6.771051    0.438375    0.577857
      7          6           0        2.644729    0.370340   -0.543412
      8          6           0        2.366206    1.789396   -0.080025
      9          7           0        3.531857    2.313241    0.423056
     10          6           0        3.639863    3.657941    0.962051
     11          6           0        1.163720    2.466791   -0.119071
     12          6           0       -1.278366    2.501985   -0.579233
     13          6           0       -0.036241    1.888516   -0.594099
     14          6           0       -3.983284    3.776341   -0.331304
     15          7           0       -3.702058    2.346270   -0.325083
     16          6           0       -2.489604    1.785176   -0.459104
     17          6           0       -2.654507    0.280376   -0.424941
     18          6           0       -4.136668    0.098580   -0.219432
     19          6           0       -4.720870    1.373934   -0.150571
     20          6           0       -6.086160    1.565766    0.075064
     21          6           0       -6.868678    0.417688    0.216287
     22          6           0       -6.301350   -0.864141    0.127943
     23          6           0       -4.922493   -1.033247   -0.077276
     24         16           0       -7.374601   -2.354381    0.258822
     25         16           0        7.418693   -2.115000   -0.219738
     26          8           0        8.798028   -1.607985   -0.143065
     27          8           0        7.098006   -2.972102    1.172120
     28          8           0        6.954427   -2.957830   -1.343028
     29          8           0       -7.834759   -2.508417   -1.160995
     30          8           0       -6.424914   -3.411677    0.739155
     31          8           0       -8.432097   -1.929380    1.231134
     32          1           0        6.290876    2.451444    1.197783
     33          1           0        4.619404   -1.821809   -0.853815
     34          1           0        7.821847    0.506466    0.859971
     35          1           0        2.000667   -0.353798   -0.017571
     36          1           0        2.441781    0.257396   -1.620917
     37          1           0        4.671079    3.846635    1.278401
     38          1           0        3.365653    4.403107    0.198333
     39          1           0        2.976000    3.781156    1.832881
     40          1           0        1.127920    3.498378    0.237287
     41          1           0       -1.307680    3.579586   -0.397059
     42          1           0       -0.006037    0.822296   -0.844940
     43          1           0       -4.973330    3.938677   -0.775208
     44          1           0       -3.981963    4.177046    0.694891
     45          1           0       -3.238716    4.305943   -0.936832
     46          1           0       -2.057017   -0.157898    0.390462
     47          1           0       -2.292979   -0.168724   -1.366392
     48          1           0       -6.530728    2.559521    0.154526
     49          1           0       -7.938881    0.487343    0.418188
     50          1           0       -4.524641   -2.049909   -0.098321
     51          1           0        7.058827   -3.907122    0.892474
 ---------------------------------------------------------------------

 The electronic state is 1-A.
 Alpha  occ. eigenvalues --  -89.15086 -89.01635 -19.21217 -19.16812 -19.16697
 Alpha  occ. eigenvalues --  -19.02712 -19.02668 -19.02604 -14.45681 -14.45334
 Alpha  occ. eigenvalues --  -10.31230 -10.30821 -10.29819 -10.29381 -10.28458
 Alpha  occ. eigenvalues --  -10.27127 -10.27051 -10.26729 -10.26115 -10.25962
 Alpha  occ. eigenvalues --  -10.25766 -10.25636 -10.25208 -10.25005 -10.24889
 Alpha  occ. eigenvalues --  -10.24812 -10.21880 -10.21233 -10.19381 -10.19216
 Alpha  occ. eigenvalues --  -10.18720  -8.18245  -8.04470  -6.14668  -6.14514
 Alpha  occ. eigenvalues --   -6.14374  -6.00800  -6.00774  -6.00765  -1.15929
 Alpha  occ. eigenvalues --   -1.06145  -1.05450  -1.05384  -1.03222  -1.01527
 Alpha  occ. eigenvalues --   -0.92448  -0.88860  -0.88268  -0.88003  -0.87701
 Alpha  occ. eigenvalues --   -0.86872  -0.84760  -0.82759  -0.81029  -0.78305
 Alpha  occ. eigenvalues --   -0.77200  -0.76545  -0.74860  -0.73554  -0.71672
 Alpha  occ. eigenvalues --   -0.68314  -0.66511  -0.65126  -0.63108  -0.62245
 Alpha  occ. eigenvalues --   -0.60882  -0.59926  -0.58788  -0.57352  -0.56700
 Alpha  occ. eigenvalues --   -0.54768  -0.54537  -0.54306  -0.54021  -0.53227
 Alpha  occ. eigenvalues --   -0.52096  -0.51536  -0.51035  -0.49913  -0.49239
 Alpha  occ. eigenvalues --   -0.48541  -0.48479  -0.48307  -0.47549  -0.47208
 Alpha  occ. eigenvalues --   -0.46545  -0.46139  -0.45593  -0.45207  -0.44571
 Alpha  occ. eigenvalues --   -0.43943  -0.43620  -0.43339  -0.42040  -0.41422
 Alpha  occ. eigenvalues --   -0.40888  -0.40775  -0.40479  -0.39081  -0.38382
 Alpha  occ. eigenvalues --   -0.38171  -0.36670  -0.36238  -0.36220  -0.35298
 Alpha  occ. eigenvalues --   -0.34599  -0.34294  -0.34190  -0.32266  -0.31531
 Alpha  occ. eigenvalues --   -0.31171  -0.27357  -0.26522  -0.24177  -0.23572
 Alpha  occ. eigenvalues --   -0.23454  -0.20789  -0.20502  -0.19541  -0.16405
 Alpha virt. eigenvalues --   -0.13929  -0.07498  -0.07373  -0.04023  -0.01853
 Alpha virt. eigenvalues --   -0.00205  -0.00078   0.00543   0.00970   0.01510
 Alpha virt. eigenvalues --    0.02159   0.03212   0.03927   0.04563   0.05085

 Mulliken atomic charges:
              1
     1  C   -0.001494
     2  C    0.244758
     3  C   -0.140178
     4  C    0.052116
     5  C   -0.249998
     6  C    0.111763
     7  C    0.158470
     8  C    0.062525
     9  N   -0.297594
    10  C    0.074388
    11  C   -0.055414
    12  C   -0.047319
    13  C    0.053288
    14  C    0.068332
    15  N   -0.248926
    16  C    0.057866
    17  C    0.151955
    18  C   -0.114949
    19  C    0.208090
    20  C   -0.005725
    21  C    0.113212
    22  C   -0.243174
    23  C    0.040581
    24  S    0.985795
    25  S    0.995810
    26  O   -0.409579
    27  O   -0.323735
    28  O   -0.437872
    29  O   -0.516921
    30  O   -0.525912
    31  O   -0.520779
    32  H   -0.005061
    33  H   -0.014293
    34  H    0.005275
    35  H    0.081728
    36  H    0.082503
    37  H    0.055651
    38  H    0.059573
    39  H    0.059920
    40  H   -0.027925
    41  H   -0.019637
    42  H   -0.005123
    43  H    0.072898
    44  H    0.064984
    45  H    0.061386
    46  H    0.076950
    47  H    0.082450
    48  H   -0.028515
    49  H   -0.007311
    50  H   -0.026517
    51  H    0.191683
 Sum of Mulliken atomic charges =   0.00000

 Dipole moment (field-independent basis, Debye):
    X=             21.3074    Y=             18.7094    Z=              0.3480  Tot=             28.3578
 Quadrupole moment (field-independent basis, Debye-Ang):
   XX=           -385.5978   YY=           -178.7605   ZZ=           -202.1634
   XY=            -72.0741   XZ=             22.6231   YZ=              2.8655

 Normal termination of Gaussian 09 at Wed Mar 18 13:17:19 2015.
