 Gaussian 09, Revision B.01,
 Gaussian 09:  EM64L-G09RevB.01 12-Aug-2010

 ------------------------------------------------------
 # opt=modredundant B3LYP/cc-pVDZ Geom=PrintInputOrient
 ------------------------------------------------------

 -------------------------------
 CY3 Dihedral Scan at MP2/6-31G*
 -------------------------------
 Symbolic Z-matrix:
 Charge =  0 Multiplicity = 1

 SCF Done:  E(RB3LYP) =  -2169.39489223     A.U. after   31 cycles
 SCF Done:  E(RB3LYP) =  -2169.39489903     A.U. after    8 cycles
 SCF Done:  E(RB3LYP) =  -2169.39489944     A.U. after    8 cycles
 Optimization completed.
    -- Stationary point found.
 SCF Done:  E(RB3LYP) =  -2169.38923276     A.U. after   13 cycles
 SCF Done:  E(RB3LYP) =  -2169.39355842     A.U. after   13 cycles
 SCF Done:  E(RB3LYP) =  -2169.39448082     A.U. after   24 cycles
 SCF Done:  E(RB3LYP) =  -2169.39455635     A.U. after   11 cycles
 SCF Done:  E(RB3LYP) =  -2169.39456448     A.U. after   10 cycles
 SCF Done:  E(RB3LYP) =  -2169.39456641     A.U. after    8 cycles
 SCF Done:  E(RB3LYP) =  -2169.39456821     A.U. after    8 cycles
 Optimization completed.
 SCF Done:  E(RB3LYP) =  -2169.38969680     A.U. after   12 cycles
 SCF Done:  E(RB3LYP) =  -2169.38970101     A.U. after   10 cycles
 SCF Done:  E(RB3LYP) =  -2169.38970145     A.U. after    8 cycles
 SCF Done:  E(RB3LYP) =  -2169.38970151     A.U. after    7 cycles
    -- Stationary point found.
 SCF Done:  E(RB3LYP) =  -2169.38333405     A.U. after   14 cycles
 SCF Done:  E(RB3LYP) =  -2169.38903627     A.U. after   13 cycles
 SCF Done:  E(RB3LYP) =  -2169.38936717     A.U. after   12 cycles
 SCF Done:  E(RB3LYP) =  -2169.38937099     A.U. after   10 cycles
 SCF Done:  E(RB3LYP) =  -2169.38937134     A.U. after    8 cycles
 SCF Done:  E(RB3LYP) =  -2169.38937138     A.U. after    7 cycles
 Optimization completed.
    -- Stationary point found.

                         Standard orientation:
 ---------------------------------------------------------------------
 Center     Atomic      Atomic             Coordinates (Angstroms)
 Number     Number       Type             X           Y           Z
 ---------------------------------------------------------------------
      1          6           0       -6.067520    1.639908    0.034762
      2          6           0       -4.686966    1.431006    0.021108
      3          6           0       -4.135529    0.139189   -0.000556
      4          6           0       -4.956687   -0.978777   -0.011955
      5          6           0       -6.344103   -0.771035   -0.001151
      6          6           0       -6.896381    0.514885    0.022287
      7          6           0       -2.631940    0.265176   -0.011147
      8          6           0       -2.415657    1.769111    0.008531
      9          7           0       -3.646781    2.378178    0.025679
     10          6           0       -3.828545    3.818786    0.044179
     11          6           0       -1.213845    2.445982    0.009383
     12          6           0        1.264472    2.442654   -0.003825
     13          6           0        0.044176    1.796531   -0.005941
     14          6           0        4.009571    3.758281    0.009428
     15          7           0        3.713013    2.331946   -0.008884
     16          6           0        2.500627    1.756037   -0.015444
     17          6           0        2.690760    0.252512   -0.036028
     18          6           0        4.188876    0.089348   -0.034075
     19          6           0        4.758011    1.372471   -0.020819
     20          6           0        6.137637    1.588507   -0.031666
     21          6           0        6.950459    0.452459   -0.045468
     22          6           0        6.395842   -0.837709   -0.041277
     23          6           0        5.004363   -1.029805   -0.052237
     24         16           0        7.498141   -2.311783    0.021935
     25         16           0       -7.516605   -2.138678   -0.037911
     26          8           0       -8.172001   -2.159573   -1.351604
     27          8           0       -6.482405   -3.442390    0.034025
     28          8           0       -8.301174   -2.144914    1.214635
     29          8           0        7.647147   -2.494868    1.503820
     30          8           0        6.687707   -3.367056   -0.670377
     31          8           0        8.730809   -1.852054   -0.694275
     32          1           0       -6.506604    2.637360    0.054430
     33          1           0       -4.551060   -1.989697   -0.032267
     34          1           0       -7.979606    0.642943    0.033859
     35          1           0       -2.180400   -0.189647   -0.908162
     36          1           0       -2.164054   -0.215739    0.863568
     37          1           0       -4.897707    4.055962    0.048257
     38          1           0       -3.368385    4.256772    0.944626
     39          1           0       -3.371061    4.278560   -0.846631
     40          1           0       -1.223183    3.537802    0.023924
     41          1           0        1.267919    3.534432    0.007933
     42          1           0        0.045164    0.702280   -0.019424
     43          1           0        4.631969    3.987789    0.886828
     44          1           0        4.568637    4.027788   -0.899142
     45          1           0        3.089149    4.347159    0.056312
     46          1           0        2.216086   -0.184146   -0.930599
     47          1           0        2.210306   -0.210352    0.841954
     48          1           0        6.571090    2.590223   -0.037705
     49          1           0        8.038260    0.536022   -0.075036
     50          1           0        4.622420   -2.052106   -0.087106
     51          1           0       -6.673543   -3.863146    0.894091
 ---------------------------------------------------------------------

 The electronic state is 1-A.
 Alpha  occ. eigenvalues --  -89.15249 -89.01630 -19.22212 -19.16781 -19.16584
 Alpha  occ. eigenvalues --  -19.02694 -19.02670 -19.02587 -14.45915 -14.45098
 Alpha  occ. eigenvalues --  -10.31052 -10.31043 -10.29603 -10.29272 -10.28594
 Alpha  occ. eigenvalues --  -10.27053 -10.26932 -10.26917 -10.26000 -10.25872
 Alpha  occ. eigenvalues --  -10.25868 -10.25648 -10.25161 -10.25111 -10.24981
 Alpha  occ. eigenvalues --  -10.24589 -10.21934 -10.21270 -10.19449 -10.19197
 Alpha  occ. eigenvalues --  -10.18744  -8.18396  -8.04465  -6.14847  -6.14647
 Alpha  occ. eigenvalues --   -6.14514  -6.00795  -6.00768  -6.00759  -1.16254
 Alpha  occ. eigenvalues --   -1.06091  -1.05951  -1.05613  -1.03166  -1.01523
 Alpha  occ. eigenvalues --   -0.92383  -0.88817  -0.88271  -0.87992  -0.87752
 Alpha  occ. eigenvalues --   -0.86872  -0.84790  -0.82731  -0.81010  -0.78236
 Alpha  occ. eigenvalues --   -0.77218  -0.76538  -0.74926  -0.73536  -0.71642
 Alpha  occ. eigenvalues --   -0.68498  -0.66481  -0.65233  -0.63167  -0.62331
 Alpha  occ. eigenvalues --   -0.60915  -0.60006  -0.58655  -0.58125  -0.56929
 Alpha  occ. eigenvalues --   -0.54737  -0.54585  -0.54185  -0.53566  -0.53301
 Alpha  occ. eigenvalues --   -0.52068  -0.51430  -0.50848  -0.49893  -0.49729
 Alpha  occ. eigenvalues --   -0.48642  -0.48500  -0.48467  -0.47472  -0.46852
 Alpha  occ. eigenvalues --   -0.46681  -0.46214  -0.46042  -0.45318  -0.44879
 Alpha  occ. eigenvalues --   -0.44037  -0.43479  -0.43418  -0.42059  -0.41357
 Alpha  occ. eigenvalues --   -0.40996  -0.40784  -0.40434  -0.39030  -0.38856
 Alpha  occ. eigenvalues --   -0.38197  -0.36742  -0.36369  -0.36219  -0.35577
 Alpha  occ. eigenvalues --   -0.34625  -0.34380  -0.33950  -0.32813  -0.31517
 Alpha  occ. eigenvalues --   -0.30815  -0.27203  -0.26572  -0.24146  -0.23567
 Alpha  occ. eigenvalues --   -0.23455  -0.20765  -0.20519  -0.19559  -0.16400
 Alpha virt. eigenvalues --   -0.13694  -0.07413  -0.06826  -0.03694  -0.01862
 Alpha virt. eigenvalues --   -0.00836  -0.00108   0.00191   0.01034   0.01442
 Alpha virt. eigenvalues --    0.02110   0.02598   0.03319   0.04347   0.04583

 Mulliken atomic charges:
              1
     1  C   -0.005003
     2  C    0.243736
     3  C   -0.139568
     4  C    0.053594
     5  C   -0.241462
     6  C    0.120084
     7  C    0.157832
     8  C    0.066551
     9  N   -0.300146
    10  C    0.076100
    11  C   -0.060222
    12  C   -0.038505
    13  C    0.061725
    14  C    0.073156
    15  N   -0.252152
    16  C    0.058859
    17  C    0.149417
    18  C   -0.112229
    19  C    0.214394
    20  C   -0.008610
    21  C    0.108102
    22  C   -0.242538
    23  C    0.042056
    24  S    0.985790
    25  S    0.985516
    26  O   -0.400881
    27  O   -0.324664
    28  O   -0.437279
    29  O   -0.518367
    30  O   -0.525884
    31  O   -0.520620
    32  H   -0.005287
    33  H   -0.019490
    34  H    0.002747
    35  H    0.081952
    36  H    0.079774
    37  H    0.054723
    38  H    0.058256
    39  H    0.058772
    40  H   -0.032261
    41  H   -0.023628
    42  H   -0.009249
    43  H    0.072482
    44  H    0.071632
    45  H    0.053859
    46  H    0.081404
    47  H    0.080756
    48  H   -0.032491
    49  H   -0.006883
    50  H   -0.026950
    51  H    0.191101
 Sum of Mulliken atomic charges =   0.00000

 Dipole moment (field-independent basis, Debye):
    X=            -21.3967    Y=             18.8205    Z=              1.1315  Tot=             28.5185
 Quadrupole moment (field-independent basis, Debye-Ang):
   XX=           -394.9285   YY=           -177.2112   ZZ=           -205.0680
   XY=             66.8519   XZ=            -11.0145   YZ=             -5.3949

 Normal termination of Gaussian 09 at Tue Mar 17 21:30:39 2015.
