 Gaussian 09, Revision B.01,
 Gaussian 09:  EM64L-G09RevB.01 12-Aug-2010

 ------------------------------------------------------
 # opt=modredundant B3LYP/cc-pVDZ Geom=PrintInputOrient
 ------------------------------------------------------

 -------------------------------
 CY3 Dihedral Scan at MP2/6-31G*
 -------------------------------
 Symbolic Z-matrix:
 Charge =  0 Multiplicity = 1

 SCF Done:  E(RB3LYP) =  -2169.39489223     A.U. after   31 cycles
 SCF Done:  E(RB3LYP) =  -2169.39489902     A.U. after    8 cycles
 SCF Done:  E(RB3LYP) =  -2169.39489943     A.U. after    8 cycles
 Optimization completed.
    -- Stationary point found.
 SCF Done:  E(RB3LYP) =  -2169.39185940     A.U. after   24 cycles
 SCF Done:  E(RB3LYP) =  -2169.39170465     A.U. after   10 cycles
 SCF Done:  E(RB3LYP) =  -2169.39213974     A.U. after   24 cycles
 SCF Done:  E(RB3LYP) =  -2169.39216036     A.U. after   10 cycles
 SCF Done:  E(RB3LYP) =  -2169.39216364     A.U. after    8 cycles
 SCF Done:  E(RB3LYP) =  -2169.39216538     A.U. after    9 cycles
 SCF Done:  E(RB3LYP) =  -2169.39216656     A.U. after    9 cycles
 Optimization completed.
    -- Stationary point found.
 SCF Done:  E(RB3LYP) =  -2169.38370396     A.U. after   13 cycles
 SCF Done:  E(RB3LYP) =  -2169.38371257     A.U. after   11 cycles
 SCF Done:  E(RB3LYP) =  -2169.38371648     A.U. after   10 cycles
 SCF Done:  E(RB3LYP) =  -2169.38371710     A.U. after    8 cycles
 SCF Done:  E(RB3LYP) =  -2169.38371732     A.U. after    8 cycles
 SCF Done:  E(RB3LYP) =  -2169.38371751     A.U. after    7 cycles
 SCF Done:  E(RB3LYP) =  -2169.38371768     A.U. after    7 cycles
 SCF Done:  E(RB3LYP) =  -2169.38371776     A.U. after    7 cycles
 SCF Done:  E(RB3LYP) =  -2169.38371798     A.U. after    8 cycles
 SCF Done:  E(RB3LYP) =  -2169.38371798     A.U. after    7 cycles
 Optimization completed.
    -- Stationary point found.

                         Standard orientation:
 ---------------------------------------------------------------------
 Center     Atomic      Atomic             Coordinates (Angstroms)
 Number     Number       Type             X           Y           Z
 ---------------------------------------------------------------------
      1          6           0       -6.071604    1.622226   -0.180261
      2          6           0       -4.694078    1.410854   -0.070789
      3          6           0       -4.133680    0.114568   -0.052863
      4          6           0       -4.971623   -0.979052   -0.194174
      5          6           0       -6.334381   -0.758067    0.078934
      6          6           0       -6.910345    0.499407   -0.117134
      7          6           0       -2.631974    0.247366   -0.066453
      8          6           0       -2.422374    1.752384   -0.030561
      9          7           0       -3.656902    2.357803   -0.031518
     10          6           0       -3.846515    3.797481    0.000940
     11          6           0       -1.223046    2.431771   -0.000606
     12          6           0        1.255073    2.433715    0.031064
     13          6           0        0.036993    1.784829    0.000475
     14          6           0        3.993902    3.755980    0.127409
     15          7           0        3.703465    2.329487    0.065141
     16          6           0        2.493437    1.750303    0.025875
     17          6           0        2.688818    0.248513   -0.030479
     18          6           0        4.187429    0.090249   -0.019112
     19          6           0        4.751885    1.374407    0.036336
     20          6           0        6.130875    1.595356    0.042834
     21          6           0        6.947770    0.463088    0.001628
     22          6           0        6.397748   -0.828644   -0.036907
     23          6           0        5.007063   -1.025139   -0.063382
     24         16           0        7.505498   -2.299715   -0.015005
     25         16           0       -7.420411   -2.178154    0.217628
     26          8           0       -8.753340   -1.704821    0.625047
     27          8           0       -7.488312   -2.643364   -1.384044
     28          8           0       -6.723525   -3.267985    0.933651
     29          8           0        7.653357   -2.525797    1.460982
     30          8           0        6.700215   -3.336940   -0.739771
     31          8           0        8.737283   -1.814165   -0.715538
     32          1           0       -6.498532    2.618665   -0.295218
     33          1           0       -4.580873   -1.998028   -0.230481
     34          1           0       -7.994828    0.609639   -0.099290
     35          1           0       -2.180504   -0.196589   -0.969112
     36          1           0       -2.161593   -0.241122    0.802375
     37          1           0       -4.909875    4.024629    0.133538
     38          1           0       -3.291757    4.235476    0.845329
     39          1           0       -3.495647    4.263553   -0.934425
     40          1           0       -1.234678    3.523474    0.019897
     41          1           0        1.255764    3.525260    0.057247
     42          1           0        0.040916    0.690850   -0.025511
     43          1           0        4.642790    3.953705    0.992926
     44          1           0        4.522291    4.064983   -0.787144
     45          1           0        3.072824    4.336861    0.229629
     46          1           0        2.223248   -0.167547   -0.939404
     47          1           0        2.202500   -0.237563    0.831773
     48          1           0        6.560773    2.598299    0.068230
     49          1           0        8.035402    0.551418   -0.018328
     50          1           0        4.629130   -2.047246   -0.131663
     51          1           0       -7.438334   -3.618835   -1.366964
 ---------------------------------------------------------------------

 The electronic state is 1-A.
 Alpha  occ. eigenvalues --  -89.14841 -89.01664 -19.21138 -19.16575 -19.16567
 Alpha  occ. eigenvalues --  -19.02730 -19.02705 -19.02628 -14.45985 -14.45168
 Alpha  occ. eigenvalues --  -10.31101 -10.31085 -10.29729 -10.29273 -10.28637
 Alpha  occ. eigenvalues --  -10.27097 -10.26974 -10.26638 -10.26116 -10.26016
 Alpha  occ. eigenvalues --  -10.25790 -10.25488 -10.25211 -10.25144 -10.25049
 Alpha  occ. eigenvalues --  -10.24658 -10.21980 -10.21314 -10.19485 -10.19243
 Alpha  occ. eigenvalues --  -10.18793  -8.18017  -8.04499  -6.14443  -6.14282
 Alpha  occ. eigenvalues --   -6.14141  -6.00829  -6.00803  -6.00794  -1.15713
 Alpha  occ. eigenvalues --   -1.05986  -1.05674  -1.05240  -1.03025  -1.01560
 Alpha  occ. eigenvalues --   -0.92433  -0.88872  -0.88305  -0.88031  -0.87795
 Alpha  occ. eigenvalues --   -0.86891  -0.84798  -0.82681  -0.80987  -0.78251
 Alpha  occ. eigenvalues --   -0.77252  -0.76551  -0.74971  -0.73581  -0.71554
 Alpha  occ. eigenvalues --   -0.68278  -0.66323  -0.65051  -0.63061  -0.62356
 Alpha  occ. eigenvalues --   -0.60852  -0.60064  -0.58643  -0.57384  -0.56833
 Alpha  occ. eigenvalues --   -0.54824  -0.54472  -0.54252  -0.53874  -0.53350
 Alpha  occ. eigenvalues --   -0.52152  -0.51353  -0.50881  -0.49832  -0.49046
 Alpha  occ. eigenvalues --   -0.48655  -0.48501  -0.48262  -0.47591  -0.47147
 Alpha  occ. eigenvalues --   -0.46704  -0.46126  -0.45462  -0.45307  -0.44530
 Alpha  occ. eigenvalues --   -0.44058  -0.43498  -0.43375  -0.42100  -0.41402
 Alpha  occ. eigenvalues --   -0.41173  -0.40743  -0.40365  -0.39162  -0.38405
 Alpha  occ. eigenvalues --   -0.38230  -0.36684  -0.36256  -0.36158  -0.35243
 Alpha  occ. eigenvalues --   -0.34661  -0.34097  -0.33908  -0.32183  -0.31294
 Alpha  occ. eigenvalues --   -0.31099  -0.27309  -0.26615  -0.24219  -0.23600
 Alpha  occ. eigenvalues --   -0.23493  -0.20800  -0.20554  -0.19595  -0.16433
 Alpha virt. eigenvalues --   -0.13782  -0.07976  -0.07408  -0.03892  -0.01907
 Alpha virt. eigenvalues --   -0.00216  -0.00131   0.00459   0.01048   0.01475
 Alpha virt. eigenvalues --    0.02438   0.03381   0.03873   0.04372   0.04938

 Mulliken atomic charges:
              1
     1  C   -0.018795
     2  C    0.245397
     3  C   -0.156131
     4  C    0.070870
     5  C   -0.257485
     6  C    0.121293
     7  C    0.150794
     8  C    0.069004
     9  N   -0.295229
    10  C    0.075693
    11  C   -0.060843
    12  C   -0.038335
    13  C    0.061671
    14  C    0.072872
    15  N   -0.251704
    16  C    0.058918
    17  C    0.149514
    18  C   -0.112219
    19  C    0.214212
    20  C   -0.008463
    21  C    0.108626
    22  C   -0.242610
    23  C    0.042072
    24  S    0.986052
    25  S    0.987033
    26  O   -0.411189
    27  O   -0.328058
    28  O   -0.439968
    29  O   -0.517511
    30  O   -0.525576
    31  O   -0.520461
    32  H   -0.006962
    33  H    0.000600
    34  H    0.017420
    35  H    0.080951
    36  H    0.081017
    37  H    0.056311
    38  H    0.059827
    39  H    0.057128
    40  H   -0.031645
    41  H   -0.023376
    42  H   -0.008631
    43  H    0.073182
    44  H    0.071279
    45  H    0.054259
    46  H    0.081061
    47  H    0.081995
    48  H   -0.032177
    49  H   -0.006703
    50  H   -0.026448
    51  H    0.191469
 Sum of Mulliken atomic charges =   0.00000

 Dipole moment (field-independent basis, Debye):
    X=            -21.8348    Y=             19.0094    Z=             -1.8446  Tot=             29.0089
 Quadrupole moment (field-independent basis, Debye-Ang):
   XX=           -385.8271   YY=           -179.0207   ZZ=           -203.2025
   XY=             69.0858   XZ=             14.2434   YZ=              8.1630

 Normal termination of Gaussian 09 at Sat Mar 21 15:43:12 2015.
