 Gaussian 09, Revision B.01,
 Gaussian 09:  EM64L-G09RevB.01 12-Aug-2010

 ------------------------------------------------------
 # opt=modredundant B3LYP/cc-pVDZ Geom=PrintInputOrient
 ------------------------------------------------------

 -------------------------------
 CY3 Dihedral Scan at MP2/6-31G*
 -------------------------------
 Symbolic Z-matrix:
 Charge =  0 Multiplicity = 1

 SCF Done:  E(RB3LYP) =  -2169.39489223     A.U. after   31 cycles
 SCF Done:  E(RB3LYP) =  -2169.39489901     A.U. after    8 cycles
 SCF Done:  E(RB3LYP) =  -2169.39489942     A.U. after    8 cycles
 Optimization completed.
    -- Stationary point found.
 SCF Done:  E(RB3LYP) =  -2169.39221333     A.U. after   15 cycles
 SCF Done:  E(RB3LYP) =  -2169.39223124     A.U. after    9 cycles
 SCF Done:  E(RB3LYP) =  -2169.39234400     A.U. after   11 cycles
 SCF Done:  E(RB3LYP) =  -2169.39235713     A.U. after    8 cycles
 SCF Done:  E(RB3LYP) =  -2169.39236023     A.U. after   10 cycles
 SCF Done:  E(RB3LYP) =  -2169.39236191     A.U. after    9 cycles
 SCF Done:  E(RB3LYP) =  -2169.39236293     A.U. after    9 cycles
 SCF Done:  E(RB3LYP) =  -2169.39238563     A.U. after   11 cycles
 SCF Done:  E(RB3LYP) =  -2169.39238863     A.U. after   10 cycles
 SCF Done:  E(RB3LYP) =  -2169.39238867     A.U. after    7 cycles
 SCF Done:  E(RB3LYP) =  -2169.39238868     A.U. after    5 cycles
 Optimization completed.
    -- Stationary point found.
 SCF Done:  E(RB3LYP) =  -2169.38395555     A.U. after   21 cycles
 SCF Done:  E(RB3LYP) =  -2169.38399259     A.U. after    8 cycles
 SCF Done:  E(RB3LYP) =  -2169.38442448     A.U. after   12 cycles
 SCF Done:  E(RB3LYP) =  -2169.38442994     A.U. after   10 cycles
 SCF Done:  E(RB3LYP) =  -2169.38443047     A.U. after    7 cycles
 SCF Done:  E(RB3LYP) =  -2169.38443052     A.U. after    7 cycles
 Optimization completed.
    -- Stationary point found.

                         Standard orientation:
 ---------------------------------------------------------------------
 Center     Atomic      Atomic             Coordinates (Angstroms)
 Number     Number       Type             X           Y           Z
 ---------------------------------------------------------------------
      1          6           0       -6.067009    1.636326    0.127213
      2          6           0       -4.688975    1.419111    0.078773
      3          6           0       -4.140785    0.122876    0.032027
      4          6           0       -4.967766   -0.986919    0.028386
      5          6           0       -6.354168   -0.766536    0.062913
      6          6           0       -6.904083    0.515016    0.122557
      7          6           0       -2.637195    0.243781    0.007024
      8          6           0       -2.415412    1.746310    0.042192
      9          7           0       -3.645174    2.360093    0.078912
     10          6           0       -3.820042    3.801154    0.119812
     11          6           0       -1.211618    2.418332    0.041228
     12          6           0        1.266943    2.404110    0.000983
     13          6           0        0.043814    1.763832   -0.001577
     14          6           0        3.975407    3.724793    0.070667
     15          7           0        3.709668    2.294632   -0.026800
     16          6           0        2.500414    1.713837   -0.051086
     17          6           0        2.695067    0.216022   -0.163922
     18          6           0        4.194008    0.058974   -0.182030
     19          6           0        4.759189    1.347178   -0.134730
     20          6           0        6.137478    1.572410   -0.243512
     21          6           0        6.920574    0.428725   -0.426228
     22          6           0        6.398866   -0.829159   -0.076853
     23          6           0        5.016408   -1.059739   -0.191068
     24         16           0        7.528810   -2.263351    0.158085
     25         16           0       -7.451536   -2.181465    0.078387
     26          8           0       -8.772886   -1.752112    0.564006
     27          8           0       -7.558163   -2.450610   -1.562911
     28          8           0       -6.751437   -3.353759    0.646889
     29          8           0        7.715525   -2.226141    1.645805
     30          8           0        6.725200   -3.422443   -0.353484
     31          8           0        8.734898   -1.894396   -0.651250
     32          1           0       -6.497903    2.636314    0.176968
     33          1           0       -4.574175   -2.004109    0.012396
     34          1           0       -7.986925    0.629853    0.174464
     35          1           0       -2.195784   -0.202559   -0.899223
     36          1           0       -2.163415   -0.249000    0.871859
     37          1           0       -4.887784    4.044020    0.103866
     38          1           0       -3.376494    4.221939    1.036818
     39          1           0       -3.341476    4.272393   -0.753513
     40          1           0       -1.215773    3.509720    0.076397
     41          1           0        1.279028    3.495540    0.035274
     42          1           0        0.039886    0.670115   -0.040113
     43          1           0        4.884458    3.873404    0.667345
     44          1           0        4.129345    4.156947   -0.930597
     45          1           0        3.143219    4.234883    0.568312
     46          1           0        2.219261   -0.161895   -1.084788
     47          1           0        2.218334   -0.305959    0.682035
     48          1           0        6.562025    2.574067   -0.331797
     49          1           0        7.999811    0.500496   -0.578641
     50          1           0        4.649809   -2.087552   -0.160470
     51          1           0       -7.525065   -3.421551   -1.663999
 ---------------------------------------------------------------------

 The electronic state is 1-A.
 Alpha  occ. eigenvalues --  -89.14975 -89.01780 -19.21126 -19.16703 -19.16592
 Alpha  occ. eigenvalues --  -19.02915 -19.02913 -19.02679 -14.45851 -14.45066
 Alpha  occ. eigenvalues --  -10.30980 -10.30813 -10.29668 -10.29223 -10.28531
 Alpha  occ. eigenvalues --  -10.26959 -10.26850 -10.26585 -10.25954 -10.25821
 Alpha  occ. eigenvalues --  -10.25641 -10.25479 -10.25220 -10.25049 -10.24927
 Alpha  occ. eigenvalues --  -10.24557 -10.21958 -10.21383 -10.19602 -10.19314
 Alpha  occ. eigenvalues --  -10.18994  -8.18136  -8.04618  -6.14559  -6.14404
 Alpha  occ. eigenvalues --   -6.14264  -6.00948  -6.00924  -6.00910  -1.15813
 Alpha  occ. eigenvalues --   -1.05914  -1.05543  -1.05281  -1.03109  -1.01689
 Alpha  occ. eigenvalues --   -0.92293  -0.88746  -0.88454  -0.88156  -0.87795
 Alpha  occ. eigenvalues --   -0.86777  -0.84720  -0.82704  -0.80961  -0.78224
 Alpha  occ. eigenvalues --   -0.77200  -0.76469  -0.74865  -0.73541  -0.71569
 Alpha  occ. eigenvalues --   -0.68224  -0.66368  -0.65041  -0.63032  -0.62233
 Alpha  occ. eigenvalues --   -0.60767  -0.59954  -0.58643  -0.57220  -0.56706
 Alpha  occ. eigenvalues --   -0.54773  -0.54474  -0.54120  -0.54004  -0.53282
 Alpha  occ. eigenvalues --   -0.52108  -0.51412  -0.50897  -0.49746  -0.49063
 Alpha  occ. eigenvalues --   -0.48565  -0.48406  -0.48199  -0.47455  -0.47111
 Alpha  occ. eigenvalues --   -0.46483  -0.46103  -0.45471  -0.45197  -0.44444
 Alpha  occ. eigenvalues --   -0.44075  -0.43472  -0.43293  -0.42041  -0.41332
 Alpha  occ. eigenvalues --   -0.40926  -0.40625  -0.40472  -0.39196  -0.38654
 Alpha  occ. eigenvalues --   -0.38118  -0.36694  -0.36526  -0.36211  -0.35316
 Alpha  occ. eigenvalues --   -0.34691  -0.34184  -0.34118  -0.32134  -0.31395
 Alpha  occ. eigenvalues --   -0.31143  -0.27189  -0.26338  -0.24156  -0.23694
 Alpha  occ. eigenvalues --   -0.23631  -0.20944  -0.20528  -0.19783  -0.16567
 Alpha virt. eigenvalues --   -0.13695  -0.07377  -0.07236  -0.03812  -0.02084
 Alpha virt. eigenvalues --   -0.00604  -0.00063   0.00582   0.01161   0.01554
 Alpha virt. eigenvalues --    0.02614   0.03265   0.03954   0.04576   0.05187

 Mulliken atomic charges:
              1
     1  C   -0.003311
     2  C    0.246094
     3  C   -0.139523
     4  C    0.051404
     5  C   -0.250482
     6  C    0.111621
     7  C    0.158341
     8  C    0.066720
     9  N   -0.300212
    10  C    0.076153
    11  C   -0.060267
    12  C   -0.040902
    13  C    0.060863
    14  C    0.068825
    15  N   -0.248858
    16  C    0.064121
    17  C    0.146982
    18  C   -0.116979
    19  C    0.200100
    20  C   -0.012159
    21  C    0.093424
    22  C   -0.242454
    23  C    0.040063
    24  S    0.989839
    25  S    0.995150
    26  O   -0.410119
    27  O   -0.324794
    28  O   -0.437378
    29  O   -0.517695
    30  O   -0.521434
    31  O   -0.517202
    32  H   -0.005903
    33  H   -0.014465
    34  H    0.004618
    35  H    0.079962
    36  H    0.082470
    37  H    0.054993
    38  H    0.058432
    39  H    0.058450
    40  H   -0.032069
    41  H   -0.025761
    42  H   -0.009158
    43  H    0.074965
    44  H    0.066649
    45  H    0.058783
    46  H    0.079693
    47  H    0.080960
    48  H   -0.023608
    49  H    0.008179
    50  H   -0.014090
    51  H    0.190973
 Sum of Mulliken atomic charges =   0.00000

 Dipole moment (field-independent basis, Debye):
    X=            -21.7855    Y=             18.7406    Z=             -2.5660  Tot=             28.8514
 Quadrupole moment (field-independent basis, Debye-Ang):
   XX=           -385.6061   YY=           -180.1404   ZZ=           -201.7407
   XY=             66.1691   XZ=              3.3803   YZ=             10.1843

 Normal termination of Gaussian 09 at Fri Mar 20 13:24:27 2015.
