 Gaussian 09, Revision B.01,
 Gaussian 09:  EM64L-G09RevB.01 12-Aug-2010

 ------------------------------------------------------
 # opt=modredundant B3LYP/cc-pVDZ Geom=PrintInputOrient
 ------------------------------------------------------

 -------------------------------
 CY3 Dihedral Scan at MP2/6-31G*
 -------------------------------
 Symbolic Z-matrix:
 Charge =  0 Multiplicity = 1

 SCF Done:  E(RB3LYP) =  -2169.39489223     A.U. after   31 cycles
 SCF Done:  E(RB3LYP) =  -2169.39489903     A.U. after    8 cycles
 SCF Done:  E(RB3LYP) =  -2169.39489944     A.U. after    8 cycles
 Optimization completed.
    -- Stationary point found.
 SCF Done:  E(RB3LYP) =  -2169.39242519     A.U. after   13 cycles
 SCF Done:  E(RB3LYP) =  -2169.39243788     A.U. after    8 cycles
 SCF Done:  E(RB3LYP) =  -2169.39280977     A.U. after   12 cycles
 SCF Done:  E(RB3LYP) =  -2169.39296949     A.U. after   12 cycles
 SCF Done:  E(RB3LYP) =  -2169.39306667     A.U. after   12 cycles
 SCF Done:  E(RB3LYP) =  -2169.39314230     A.U. after   11 cycles
 SCF Done:  E(RB3LYP) =  -2169.39322677     A.U. after   11 cycles
 SCF Done:  E(RB3LYP) =  -2169.39326502     A.U. after    8 cycles
 Optimization completed.
    -- Stationary point found.
 SCF Done:  E(RB3LYP) =  -2169.38643440     A.U. after   23 cycles
 SCF Done:  E(RB3LYP) =  -2169.38749462     A.U. after   23 cycles
 SCF Done:  E(RB3LYP) =  -2169.38761846     A.U. after   22 cycles
 SCF Done:  E(RB3LYP) =  -2169.38762505     A.U. after   10 cycles
 SCF Done:  E(RB3LYP) =  -2169.38762812     A.U. after   22 cycles
 SCF Done:  E(RB3LYP) =  -2169.38762843     A.U. after    8 cycles
 SCF Done:  E(RB3LYP) =  -2169.38762852     A.U. after    8 cycles
 SCF Done:  E(RB3LYP) =  -2169.38762856     A.U. after    7 cycles
 SCF Done:  E(RB3LYP) =  -2169.38762857     A.U. after    6 cycles
 Optimization completed.
    -- Stationary point found.

                         Standard orientation:
 ---------------------------------------------------------------------
 Center     Atomic      Atomic             Coordinates (Angstroms)
 Number     Number       Type             X           Y           Z
 ---------------------------------------------------------------------
      1          6           0        6.001129    1.605605    0.170943
      2          6           0        4.710561    1.446910   -0.336709
      3          6           0        4.149820    0.164891   -0.514535
      4          6           0        4.937901   -0.966947   -0.402956
      5          6           0        6.279860   -0.789568   -0.027107
      6          6           0        6.808020    0.465242    0.275323
      7          6           0        2.652040    0.318586   -0.644407
      8          6           0        2.444878    1.800162   -0.360294
      9          7           0        3.679704    2.403518   -0.431736
     10          6           0        3.901966    3.825317   -0.235838
     11          6           0        1.257121    2.460154   -0.139390
     12          6           0       -1.210697    2.443303    0.087694
     13          6           0       -0.002935    1.810572   -0.123194
     14          6           0       -3.935857    3.734731    0.500156
     15          7           0       -3.651376    2.322187    0.282302
     16          6           0       -2.448294    1.757001    0.100727
     17          6           0       -2.647892    0.266558   -0.086180
     18          6           0       -4.141975    0.098835    0.015149
     19          6           0       -4.699799    1.367441    0.241326
     20          6           0       -6.071618    1.572992    0.401506
     21          6           0       -6.889600    0.443613    0.314739
     22          6           0       -6.347885   -0.828908    0.072110
     23          6           0       -4.961677   -1.014008   -0.063942
     24         16           0       -7.459832   -2.284793   -0.115891
     25         16           0        7.338252   -2.228664    0.106252
     26          8           0        8.740785   -1.784276    0.155677
     27          8           0        6.887424   -2.733201    1.630053
     28          8           0        6.884724   -3.277229   -0.832129
     29          8           0       -7.666776   -2.295698   -1.602139
     30          8           0       -6.625612   -3.411987    0.415918
     31          8           0       -8.660957   -1.912761    0.697942
     32          1           0        6.403852    2.585834    0.428540
     33          1           0        4.538027   -1.969493   -0.560877
     34          1           0        7.842881    0.543827    0.608914
     35          1           0        2.110932   -0.322452    0.066948
     36          1           0        2.280357    0.072252   -1.654856
     37          1           0        4.907468    4.083671   -0.591619
     38          1           0        3.173405    4.398384   -0.826033
     39          1           0        3.809949    4.113540    0.826104
     40          1           0        1.277459    3.536971    0.041657
     41          1           0       -1.204953    3.523253    0.248323
     42          1           0       -0.013517    0.729519   -0.291840
     43          1           0       -4.644233    4.082648   -0.265787
     44          1           0       -4.394786    3.868029    1.491274
     45          1           0       -3.020519    4.330330    0.440600
     46          1           0       -2.102526   -0.295180    0.690523
     47          1           0       -2.246826   -0.058628   -1.060598
     48          1           0       -6.495437    2.560370    0.593760
     49          1           0       -7.970613    0.515643    0.447055
     50          1           0       -4.584518   -2.027599   -0.213739
     51          1           0        6.893462   -3.709218    1.588617
 ---------------------------------------------------------------------

 The electronic state is 1-A.
 Alpha  occ. eigenvalues --  -89.14963 -89.01714 -19.21157 -19.16674 -19.16600
 Alpha  occ. eigenvalues --  -19.02768 -19.02764 -19.02683 -14.46103 -14.44813
 Alpha  occ. eigenvalues --  -10.31184 -10.31113 -10.29550 -10.29052 -10.28711
 Alpha  occ. eigenvalues --  -10.27061 -10.26980 -10.26645 -10.25996 -10.25810
 Alpha  occ. eigenvalues --  -10.25618 -10.25539 -10.25280 -10.25210 -10.25142
 Alpha  occ. eigenvalues --  -10.24733 -10.22043 -10.21390 -10.19577 -10.19271
 Alpha  occ. eigenvalues --  -10.18856  -8.18128  -8.04549  -6.14552  -6.14394
 Alpha  occ. eigenvalues --   -6.14258  -6.00879  -6.00852  -6.00844  -1.15798
 Alpha  occ. eigenvalues --   -1.05805  -1.05775  -1.05297  -1.03088  -1.01612
 Alpha  occ. eigenvalues --   -0.92255  -0.88880  -0.88361  -0.88078  -0.87867
 Alpha  occ. eigenvalues --   -0.86808  -0.84783  -0.82690  -0.80984  -0.78231
 Alpha  occ. eigenvalues --   -0.77291  -0.76395  -0.74986  -0.73614  -0.71617
 Alpha  occ. eigenvalues --   -0.68359  -0.66289  -0.65044  -0.63093  -0.62425
 Alpha  occ. eigenvalues --   -0.60869  -0.60136  -0.58485  -0.57190  -0.56871
 Alpha  occ. eigenvalues --   -0.54926  -0.54560  -0.54248  -0.53872  -0.53433
 Alpha  occ. eigenvalues --   -0.52200  -0.51325  -0.50715  -0.49679  -0.49045
 Alpha  occ. eigenvalues --   -0.48643  -0.48574  -0.48289  -0.47459  -0.47193
 Alpha  occ. eigenvalues --   -0.46778  -0.46144  -0.45458  -0.45357  -0.44410
 Alpha  occ. eigenvalues --   -0.44100  -0.43409  -0.43183  -0.42147  -0.41435
 Alpha  occ. eigenvalues --   -0.41120  -0.40706  -0.40329  -0.39145  -0.38522
 Alpha  occ. eigenvalues --   -0.38282  -0.36705  -0.36302  -0.36222  -0.35365
 Alpha  occ. eigenvalues --   -0.34720  -0.34162  -0.34139  -0.32069  -0.31248
 Alpha  occ. eigenvalues --   -0.31110  -0.27439  -0.26687  -0.24349  -0.23654
 Alpha  occ. eigenvalues --   -0.23549  -0.20844  -0.20608  -0.19657  -0.16482
 Alpha virt. eigenvalues --   -0.13785  -0.07722  -0.07222  -0.04030  -0.01979
 Alpha virt. eigenvalues --   -0.00300  -0.00019   0.00389   0.01056   0.01487
 Alpha virt. eigenvalues --    0.02345   0.03521   0.03619   0.04555   0.05114

 Mulliken atomic charges:
              1
     1  C    0.015853
     2  C    0.205652
     3  C   -0.127368
     4  C    0.065618
     5  C   -0.248810
     6  C    0.103315
     7  C    0.138817
     8  C    0.065440
     9  N   -0.290568
    10  C    0.076499
    11  C   -0.042140
    12  C   -0.037969
    13  C    0.062792
    14  C    0.072936
    15  N   -0.251055
    16  C    0.058463
    17  C    0.149069
    18  C   -0.113178
    19  C    0.214189
    20  C   -0.007581
    21  C    0.105427
    22  C   -0.242623
    23  C    0.046341
    24  S    0.986431
    25  S    0.992735
    26  O   -0.410792
    27  O   -0.325788
    28  O   -0.435664
    29  O   -0.517939
    30  O   -0.525487
    31  O   -0.520161
    32  H   -0.009783
    33  H   -0.013558
    34  H    0.006527
    35  H    0.074057
    36  H    0.081964
    37  H    0.059056
    38  H    0.059831
    39  H    0.051054
    40  H   -0.029771
    41  H   -0.022616
    42  H   -0.008898
    43  H    0.073232
    44  H    0.071902
    45  H    0.054325
    46  H    0.081641
    47  H    0.082236
    48  H   -0.031986
    49  H   -0.006412
    50  H   -0.026438
    51  H    0.191185
 Sum of Mulliken atomic charges =   0.00000

 Dipole moment (field-independent basis, Debye):
    X=             21.3273    Y=             18.8836    Z=              1.8950  Tot=             28.5488
 Quadrupole moment (field-independent basis, Debye-Ang):
   XX=           -388.5660   YY=           -178.6489   ZZ=           -201.3852
   XY=            -66.3576   XZ=             -0.6866   YZ=             -4.2436

 Normal termination of Gaussian 09 at Sun Mar 22 02:15:35 2015.
