 Gaussian 09, Revision B.01,
 Gaussian 09:  EM64L-G09RevB.01 12-Aug-2010

 ------------------------------------------------------
 # opt=modredundant B3LYP/cc-pVDZ Geom=PrintInputOrient
 ------------------------------------------------------

 -------------------------------
 CY3 Dihedral Scan at MP2/6-31G*
 -------------------------------
 Symbolic Z-matrix:
 Charge =  0 Multiplicity = 1

 SCF Done:  E(RB3LYP) =  -2169.39489223     A.U. after   31 cycles
 SCF Done:  E(RB3LYP) =  -2169.39489904     A.U. after    8 cycles
 SCF Done:  E(RB3LYP) =  -2169.39489944     A.U. after    8 cycles
 Optimization completed.
    -- Stationary point found.
 SCF Done:  E(RB3LYP) =  -2169.39314454     A.U. after   18 cycles
 SCF Done:  E(RB3LYP) =  -2169.39303180     A.U. after   11 cycles
 SCF Done:  E(RB3LYP) =  -2169.39326043     A.U. after   12 cycles
 SCF Done:  E(RB3LYP) =  -2169.39327069     A.U. after   11 cycles
 SCF Done:  E(RB3LYP) =  -2169.39327376     A.U. after   10 cycles
 SCF Done:  E(RB3LYP) =  -2169.39327475     A.U. after   10 cycles
 SCF Done:  E(RB3LYP) =  -2169.39327645     A.U. after   10 cycles
 Optimization completed on the basis of negligible forces.
    -- Stationary point found.
 SCF Done:  E(RB3LYP) =  -2169.38881347     A.U. after   11 cycles
 SCF Done:  E(RB3LYP) =  -2169.38881469     A.U. after   10 cycles
 SCF Done:  E(RB3LYP) =  -2169.38881489     A.U. after    8 cycles
 SCF Done:  E(RB3LYP) =  -2169.38881494     A.U. after    7 cycles
 SCF Done:  E(RB3LYP) =  -2169.38881496     A.U. after    6 cycles
 SCF Done:  E(RB3LYP) =  -2169.38881498     A.U. after    7 cycles
 SCF Done:  E(RB3LYP) =  -2169.38881502     A.U. after    7 cycles
 SCF Done:  E(RB3LYP) =  -2169.38881509     A.U. after    7 cycles
 SCF Done:  E(RB3LYP) =  -2169.38881513     A.U. after    7 cycles
 SCF Done:  E(RB3LYP) =  -2169.38881513     A.U. after    6 cycles
 Optimization completed.
    -- Stationary point found.

                         Standard orientation:
 ---------------------------------------------------------------------
 Center     Atomic      Atomic             Coordinates (Angstroms)
 Number     Number       Type             X           Y           Z
 ---------------------------------------------------------------------
      1          6           0       -5.897063    1.508879    0.842744
      2          6           0       -4.575542    1.358636    0.419713
      3          6           0       -4.102990    0.153511   -0.134169
      4          6           0       -4.952233   -0.929735   -0.280509
      5          6           0       -6.285535   -0.771929    0.130416
      6          6           0       -6.757119    0.415348    0.692824
      7          6           0       -2.641533    0.324666   -0.466564
      8          6           0       -2.360391    1.754541   -0.039155
      9          7           0       -3.522931    2.289934    0.459395
     10          6           0       -3.627083    3.645757    0.970480
     11          6           0       -1.159253    2.431956   -0.103823
     12          6           0        1.275473    2.467409   -0.596983
     13          6           0        0.036754    1.847618   -0.581992
     14          6           0        3.987660    3.759268   -0.416024
     15          7           0        3.705717    2.329894   -0.382133
     16          6           0        2.493572    1.761025   -0.483567
     17          6           0        2.667445    0.257657   -0.427195
     18          6           0        4.153821    0.086401   -0.244473
     19          6           0        4.732473    1.365580   -0.212091
     20          6           0        6.105054    1.568505   -0.048804
     21          6           0        6.898659    0.427029    0.082525
     22          6           0        6.332634   -0.858342    0.060157
     23          6           0        4.951509   -1.039067   -0.118100
     24         16           0        7.403385   -2.335041    0.310389
     25         16           0       -7.409476   -2.156936   -0.032885
     26          8           0       -8.575225   -1.926346    0.835388
     27          8           0       -7.878865   -1.926164   -1.615513
     28          8           0       -6.651568   -3.426455   -0.005149
     29          8           0        7.449018   -2.408364    1.808644
     30          8           0        6.628731   -3.431713   -0.358063
     31          8           0        8.689286   -1.940338   -0.348973
     32          1           0       -6.266239    2.434103    1.285283
     33          1           0       -4.612168   -1.882806   -0.687838
     34          1           0       -7.795264    0.475775    1.019912
     35          1           0       -2.434968    0.182273   -1.539728
     36          1           0       -2.001437   -0.386911    0.081118
     37          1           0       -4.658593    3.845085    1.279294
     38          1           0       -2.965241    3.784884    1.840469
     39          1           0       -3.347973    4.373701    0.192078
     40          1           0       -1.121941    3.471084    0.229789
     41          1           0        1.299982    3.548367   -0.435482
     42          1           0        0.007700    0.776237   -0.809982
     43          1           0        4.086513    4.157678    0.606153
     44          1           0        4.932061    3.919596   -0.951870
     45          1           0        3.190847    4.291728   -0.946817
     46          1           0        2.292336   -0.208969   -1.354680
     47          1           0        2.085816   -0.169636    0.405348
     48          1           0        6.549190    2.565334   -0.027025
     49          1           0        7.981848    0.504016    0.190927
     50          1           0        4.565290   -2.059638   -0.158877
     51          1           0       -7.918686   -2.822302   -2.002089
 ---------------------------------------------------------------------

 The electronic state is 1-A.
 Alpha  occ. eigenvalues --  -89.15059 -89.01612 -19.21218 -19.16785 -19.16677
 Alpha  occ. eigenvalues --  -19.02684 -19.02647 -19.02590 -14.45698 -14.45304
 Alpha  occ. eigenvalues --  -10.31199 -10.30847 -10.29802 -10.29359 -10.28461
 Alpha  occ. eigenvalues --  -10.27107 -10.27028 -10.26712 -10.26099 -10.25950
 Alpha  occ. eigenvalues --  -10.25749 -10.25614 -10.25176 -10.24994 -10.24881
 Alpha  occ. eigenvalues --  -10.24783 -10.21873 -10.21214 -10.19364 -10.19201
 Alpha  occ. eigenvalues --  -10.18704  -8.18220  -8.04448  -6.14643  -6.14488
 Alpha  occ. eigenvalues --   -6.14350  -6.00777  -6.00751  -6.00743  -1.15897
 Alpha  occ. eigenvalues --   -1.06119  -1.05455  -1.05370  -1.03194  -1.01506
 Alpha  occ. eigenvalues --   -0.92431  -0.88841  -0.88252  -0.87978  -0.87684
 Alpha  occ. eigenvalues --   -0.86862  -0.84756  -0.82749  -0.81012  -0.78287
 Alpha  occ. eigenvalues --   -0.77183  -0.76536  -0.74858  -0.73545  -0.71661
 Alpha  occ. eigenvalues --   -0.68303  -0.66492  -0.65105  -0.63090  -0.62236
 Alpha  occ. eigenvalues --   -0.60867  -0.59913  -0.58761  -0.57307  -0.56692
 Alpha  occ. eigenvalues --   -0.54758  -0.54534  -0.54282  -0.54016  -0.53214
 Alpha  occ. eigenvalues --   -0.52090  -0.51521  -0.51015  -0.49891  -0.49191
 Alpha  occ. eigenvalues --   -0.48530  -0.48461  -0.48290  -0.47545  -0.47217
 Alpha  occ. eigenvalues --   -0.46551  -0.46114  -0.45586  -0.45192  -0.44531
 Alpha  occ. eigenvalues --   -0.43931  -0.43598  -0.43333  -0.42027  -0.41380
 Alpha  occ. eigenvalues --   -0.40891  -0.40750  -0.40453  -0.39088  -0.38388
 Alpha  occ. eigenvalues --   -0.38177  -0.36657  -0.36249  -0.36175  -0.35292
 Alpha  occ. eigenvalues --   -0.34582  -0.34258  -0.34186  -0.32195  -0.31515
 Alpha  occ. eigenvalues --   -0.31154  -0.27341  -0.26509  -0.24160  -0.23555
 Alpha  occ. eigenvalues --   -0.23429  -0.20768  -0.20480  -0.19519  -0.16384
 Alpha virt. eigenvalues --   -0.13901  -0.07487  -0.07354  -0.04008  -0.01834
 Alpha virt. eigenvalues --   -0.00155  -0.00117   0.00546   0.01046   0.01533
 Alpha virt. eigenvalues --    0.02036   0.03312   0.03770   0.04639   0.05260

 Mulliken atomic charges:
              1
     1  C   -0.001633
     2  C    0.245051
     3  C   -0.140249
     4  C    0.052290
     5  C   -0.250244
     6  C    0.111859
     7  C    0.158499
     8  C    0.062447
     9  N   -0.297643
    10  C    0.074428
    11  C   -0.055696
    12  C   -0.046811
    13  C    0.053206
    14  C    0.068789
    15  N   -0.248649
    16  C    0.056924
    17  C    0.151975
    18  C   -0.114694
    19  C    0.209825
    20  C   -0.006458
    21  C    0.113446
    22  C   -0.242916
    23  C    0.039638
    24  S    0.985596
    25  S    0.995362
    26  O   -0.409599
    27  O   -0.325107
    28  O   -0.436395
    29  O   -0.517543
    30  O   -0.525291
    31  O   -0.520512
    32  H   -0.005091
    33  H   -0.014096
    34  H    0.005260
    35  H    0.080316
    36  H    0.083748
    37  H    0.055589
    38  H    0.060179
    39  H    0.059209
    40  H   -0.028076
    41  H   -0.019082
    42  H   -0.005174
    43  H    0.066412
    44  H    0.072840
    45  H    0.059989
    46  H    0.082304
    47  H    0.077710
    48  H   -0.029434
    49  H   -0.007247
    50  H   -0.026200
    51  H    0.190950
 Sum of Mulliken atomic charges =   0.00000

 Dipole moment (field-independent basis, Debye):
    X=            -22.0669    Y=             19.5487    Z=             -3.0227  Tot=             29.6350
 Quadrupole moment (field-independent basis, Debye-Ang):
   XX=           -374.6247   YY=           -188.1326   ZZ=           -196.9271
   XY=             67.6479   XZ=             -4.1794   YZ=             15.1701

 Normal termination of Gaussian 09 at Wed Mar 18 11:46:21 2015.
