 Gaussian 09, Revision B.01,
 Gaussian 09:  EM64L-G09RevB.01 12-Aug-2010

 ------------------------------------------------------
 # opt=modredundant B3LYP/cc-pVDZ Geom=PrintInputOrient
 ------------------------------------------------------

 -------------------------------
 CY3 Dihedral Scan at MP2/6-31G*
 -------------------------------
 Symbolic Z-matrix:
 Charge =  0 Multiplicity = 1

 SCF Done:  E(RB3LYP) =  -2169.39489223     A.U. after   31 cycles
 SCF Done:  E(RB3LYP) =  -2169.39489901     A.U. after    8 cycles
 Optimization completed.
    -- Stationary point found.
 SCF Done:  E(RB3LYP) =  -2169.38828527     A.U. after   24 cycles
 SCF Done:  E(RB3LYP) =  -2169.39116672     A.U. after   12 cycles
 SCF Done:  E(RB3LYP) =  -2169.39202334     A.U. after   11 cycles
 SCF Done:  E(RB3LYP) =  -2169.39206874     A.U. after   10 cycles
 SCF Done:  E(RB3LYP) =  -2169.39209036     A.U. after   10 cycles
 SCF Done:  E(RB3LYP) =  -2169.39211141     A.U. after   11 cycles
 SCF Done:  E(RB3LYP) =  -2169.39213690     A.U. after   11 cycles
 SCF Done:  E(RB3LYP) =  -2169.39216567     A.U. after   11 cycles
 Optimization completed.
    -- Stationary point found.
 SCF Done:  E(RB3LYP) =  -2169.38281376     A.U. after    8 cycles
 SCF Done:  E(RB3LYP) =  -2169.38281414     A.U. after    7 cycles
 SCF Done:  E(RB3LYP) =  -2169.38281432     A.U. after    7 cycles
 SCF Done:  E(RB3LYP) =  -2169.38281453     A.U. after    8 cycles
 SCF Done:  E(RB3LYP) =  -2169.38281456     A.U. after    7 cycles
 SCF Done:  E(RB3LYP) =  -2169.38281466     A.U. after    7 cycles
 SCF Done:  E(RB3LYP) =  -2169.38281482     A.U. after    8 cycles
 SCF Done:  E(RB3LYP) =  -2169.38281495     A.U. after    8 cycles
 SCF Done:  E(RB3LYP) =  -2169.38281504     A.U. after    7 cycles
 SCF Done:  E(RB3LYP) =  -2169.38281510     A.U. after    6 cycles
 Optimization completed.
    -- Stationary point found.

                         Standard orientation:
 ---------------------------------------------------------------------
 Center     Atomic      Atomic             Coordinates (Angstroms)
 Number     Number       Type             X           Y           Z
 ---------------------------------------------------------------------
      1          6           0       -6.091291    1.606020   -0.248782
      2          6           0       -4.718782    1.423790   -0.396382
      3          6           0       -4.111878    0.152526   -0.298124
      4          6           0       -4.882927   -0.973580   -0.083984
      5          6           0       -6.269190   -0.789163    0.078171
      6          6           0       -6.871948    0.464750   -0.011571
      7          6           0       -2.692438    0.337073   -0.785785
      8          6           0       -2.446513    1.781198   -0.395369
      9          7           0       -3.690968    2.393148   -0.458845
     10          6           0       -3.919447    3.815110   -0.280185
     11          6           0       -1.264475    2.422720   -0.118259
     12          6           0        1.197743    2.405414    0.149009
     13          6           0        0.000305    1.777798   -0.120026
     14          6           0        3.898771    3.687482    0.717161
     15          7           0        3.634719    2.292363    0.388123
     16          6           0        2.442558    1.730254    0.139926
     17          6           0        2.663170    0.260619   -0.153309
     18          6           0        4.156606    0.100881   -0.033959
     19          6           0        4.695247    1.355465    0.292213
     20          6           0        6.065293    1.570533    0.461438
     21          6           0        6.898607    0.462263    0.298158
     22          6           0        6.372903   -0.803229   -0.012599
     23          6           0        4.993205   -0.991170   -0.195936
     24         16           0        7.499090   -2.253529   -0.152329
     25         16           0       -7.292061   -2.215920    0.430530
     26          8           0       -8.605578   -1.755709    0.910327
     27          8           0       -7.468894   -2.792558   -1.123669
     28          8           0       -6.506136   -3.231827    1.163395
     29          8           0        7.596104   -2.682578    1.282165
     30          8           0        6.738341   -3.185950   -1.047329
     31          8           0        8.748317   -1.660879   -0.728549
     32          1           0       -6.557384    2.590859   -0.284340
     33          1           0       -4.449828   -1.973104   -0.026871
     34          1           0       -7.949132    0.549389    0.134128
     35          1           0       -2.663364    0.243102   -1.885990
     36          1           0       -1.962847   -0.364929   -0.361267
     37          1           0       -4.891489    4.084769   -0.712704
     38          1           0       -3.912650    4.100918    0.786425
     39          1           0       -3.144175    4.385441   -0.810275
     40          1           0       -1.290738    3.487338    0.126178
     41          1           0        1.180140    3.473615    0.374152
     42          1           0        0.019449    0.709573   -0.354414
     43          1           0        4.446332    3.735875    1.669606
     44          1           0        4.520726    4.138424   -0.070577
     45          1           0        2.965354    4.249759    0.809974
     46          1           0        2.285365    0.005239   -1.157356
     47          1           0        2.108866   -0.363166    0.567789
     48          1           0        6.477000    2.553080    0.699003
     49          1           0        7.982145    0.553693    0.390886
     50          1           0        4.639366   -1.986657   -0.471812
     51          1           0       -7.432193   -3.765124   -1.040241
 ---------------------------------------------------------------------

 The electronic state is 1-A.
 Alpha  occ. eigenvalues --  -89.14836 -89.01794 -19.21021 -19.16542 -19.16479
 Alpha  occ. eigenvalues --  -19.02867 -19.02828 -19.02772 -14.46266 -14.44471
 Alpha  occ. eigenvalues --  -10.31287 -10.30945 -10.29370 -10.28907 -10.28807
 Alpha  occ. eigenvalues --  -10.27137 -10.26825 -10.26473 -10.25746 -10.25692
 Alpha  occ. eigenvalues --  -10.25560 -10.25387 -10.25354 -10.25288 -10.25281
 Alpha  occ. eigenvalues --  -10.24945 -10.22160 -10.21477 -10.19598 -10.19436
 Alpha  occ. eigenvalues --  -10.18963  -8.17999  -8.04630  -6.14423  -6.14266
 Alpha  occ. eigenvalues --   -6.14128  -6.00960  -6.00933  -6.00924  -1.15672
 Alpha  occ. eigenvalues --   -1.05917  -1.05365  -1.05165  -1.02955  -1.01695
 Alpha  occ. eigenvalues --   -0.92049  -0.88906  -0.88435  -0.88170  -0.87966
 Alpha  occ. eigenvalues --   -0.86839  -0.84791  -0.82600  -0.80943  -0.78188
 Alpha  occ. eigenvalues --   -0.77337  -0.76195  -0.75024  -0.73655  -0.71480
 Alpha  occ. eigenvalues --   -0.68369  -0.66162  -0.64878  -0.62998  -0.62472
 Alpha  occ. eigenvalues --   -0.60765  -0.60233  -0.58400  -0.57204  -0.56853
 Alpha  occ. eigenvalues --   -0.55004  -0.54713  -0.54019  -0.53557  -0.53417
 Alpha  occ. eigenvalues --   -0.52318  -0.51270  -0.50678  -0.49434  -0.49049
 Alpha  occ. eigenvalues --   -0.48689  -0.48641  -0.48197  -0.47476  -0.46994
 Alpha  occ. eigenvalues --   -0.46876  -0.46233  -0.45465  -0.45282  -0.44301
 Alpha  occ. eigenvalues --   -0.44093  -0.43587  -0.42987  -0.42254  -0.41540
 Alpha  occ. eigenvalues --   -0.41009  -0.40425  -0.40143  -0.39082  -0.38394
 Alpha  occ. eigenvalues --   -0.38221  -0.36741  -0.36396  -0.36062  -0.35441
 Alpha  occ. eigenvalues --   -0.34799  -0.34142  -0.34019  -0.31943  -0.31371
 Alpha  occ. eigenvalues --   -0.30864  -0.27340  -0.26763  -0.24464  -0.23729
 Alpha  occ. eigenvalues --   -0.23627  -0.20950  -0.20664  -0.19741  -0.16560
 Alpha virt. eigenvalues --   -0.13890  -0.07668  -0.07078  -0.03966  -0.02026
 Alpha virt. eigenvalues --   -0.00376  -0.00132   0.00461   0.00978   0.01457
 Alpha virt. eigenvalues --    0.02151   0.03230   0.04092   0.04484   0.05238

 Mulliken atomic charges:
              1
     1  C    0.002867
     2  C    0.221504
     3  C   -0.108374
     4  C    0.060829
     5  C   -0.250015
     6  C    0.104973
     7  C    0.112734
     8  C    0.100105
     9  N   -0.298947
    10  C    0.072830
    11  C   -0.047947
    12  C   -0.037508
    13  C    0.066500
    14  C    0.072589
    15  N   -0.250194
    16  C    0.058582
    17  C    0.149345
    18  C   -0.110361
    19  C    0.214106
    20  C   -0.008611
    21  C    0.112056
    22  C   -0.242720
    23  C    0.039149
    24  S    0.986381
    25  S    0.993572
    26  O   -0.411374
    27  O   -0.326013
    28  O   -0.436956
    29  O   -0.516261
    30  O   -0.524671
    31  O   -0.519952
    32  H   -0.010337
    33  H   -0.009349
    34  H    0.006520
    35  H    0.082418
    36  H    0.048514
    37  H    0.058831
    38  H    0.052772
    39  H    0.056737
    40  H   -0.026873
    41  H   -0.021685
    42  H   -0.010579
    43  H    0.074002
    44  H    0.072339
    45  H    0.054952
    46  H    0.082569
    47  H    0.083424
    48  H   -0.031520
    49  H   -0.006188
    50  H   -0.025463
    51  H    0.190702
 Sum of Mulliken atomic charges =   0.00000

 Dipole moment (field-independent basis, Debye):
    X=            -21.6221    Y=             18.7776    Z=             -1.4026  Tot=             28.6719
 Quadrupole moment (field-independent basis, Debye-Ang):
   XX=           -381.8921   YY=           -177.9372   ZZ=           -202.7682
   XY=             68.2808   XZ=             25.4887   YZ=              9.5927

 Normal termination of Gaussian 09 at Sat Mar 21 09:01:11 2015.
