 Gaussian 09, Revision B.01,
 Gaussian 09:  EM64L-G09RevB.01 12-Aug-2010

 ------------------------------------------------------
 # opt=modredundant B3LYP/cc-pVDZ Geom=PrintInputOrient
 ------------------------------------------------------

 -------------------------------
 CY3 Dihedral Scan at MP2/6-31G*
 -------------------------------
 Symbolic Z-matrix:
 Charge =  0 Multiplicity = 1

 SCF Done:  E(RB3LYP) =  -2169.39489223     A.U. after   31 cycles
 SCF Done:  E(RB3LYP) =  -2169.39489903     A.U. after    8 cycles
 SCF Done:  E(RB3LYP) =  -2169.39489944     A.U. after    8 cycles
 Optimization completed.
    -- Stationary point found.
 SCF Done:  E(RB3LYP) =  -2169.39353469     A.U. after   19 cycles
 SCF Done:  E(RB3LYP) =  -2169.39335768     A.U. after   12 cycles
 SCF Done:  E(RB3LYP) =  -2169.39376134     A.U. after   13 cycles
 SCF Done:  E(RB3LYP) =  -2169.39378376     A.U. after   11 cycles
 SCF Done:  E(RB3LYP) =  -2169.39378817     A.U. after   10 cycles
 SCF Done:  E(RB3LYP) =  -2169.39379315     A.U. after   10 cycles
 SCF Done:  E(RB3LYP) =  -2169.39379830     A.U. after   10 cycles
 Optimization completed on the basis of negligible forces.
    -- Stationary point found.
 SCF Done:  E(RB3LYP) =  -2169.37355423     A.U. after   13 cycles
 SCF Done:  E(RB3LYP) =  -2169.37379371     A.U. after   13 cycles
 SCF Done:  E(RB3LYP) =  -2169.37383089     A.U. after   12 cycles
 SCF Done:  E(RB3LYP) =  -2169.37383800     A.U. after   10 cycles
 SCF Done:  E(RB3LYP) =  -2169.37383964     A.U. after   10 cycles
 SCF Done:  E(RB3LYP) =  -2169.37384009     A.U. after   10 cycles
 SCF Done:  E(RB3LYP) =  -2169.37384020     A.U. after    7 cycles
 SCF Done:  E(RB3LYP) =  -2169.37384024     A.U. after    7 cycles
 SCF Done:  E(RB3LYP) =  -2169.37384027     A.U. after    8 cycles
 SCF Done:  E(RB3LYP) =  -2169.37384028     A.U. after    7 cycles
 Optimization completed.
    -- Stationary point found.

                         Standard orientation:
 ---------------------------------------------------------------------
 Center     Atomic      Atomic             Coordinates (Angstroms)
 Number     Number       Type             X           Y           Z
 ---------------------------------------------------------------------
      1          6           0       -6.106206    1.621612   -0.530821
      2          6           0       -4.736063    1.396687   -0.377975
      3          6           0       -4.229208    0.128343   -0.030205
      4          6           0       -5.085785   -0.939363    0.167636
      5          6           0       -6.462535   -0.713385    0.001017
      6          6           0       -6.973782    0.541826   -0.331698
      7          6           0       -2.726416    0.227316    0.071044
      8          6           0       -2.456990    1.689421   -0.255413
      9          7           0       -3.673015    2.299091   -0.511608
     10          6           0       -3.799342    3.699365   -0.864797
     11          6           0       -1.248553    2.327645   -0.298581
     12          6           0        1.223260    2.259141   -0.072493
     13          6           0       -0.000047    1.666464   -0.041932
     14          6           0        2.633765    1.571581    2.517196
     15          7           0        3.114682    1.253090    1.173938
     16          6           0        2.488400    1.526557    0.044458
     17          6           0        3.348266    1.072346   -1.105618
     18          6           0        4.548064    0.466196   -0.429550
     19          6           0        4.358588    0.595772    0.957082
     20          6           0        5.282417    0.144760    1.901782
     21          6           0        6.432952   -0.466481    1.401305
     22          6           0        6.632641   -0.620009    0.018254
     23          6           0        5.698040   -0.138979   -0.912485
     24         16           0        8.126856   -1.511081   -0.597759
     25         16           0       -7.596179   -2.069038    0.269259
     26          8           0       -8.949897   -1.528049    0.475651
     27          8           0       -7.536535   -2.770279   -1.242794
     28          8           0       -6.998758   -3.050129    1.202277
     29          8           0        7.608399   -2.916854   -0.653821
     30          8           0        8.372228   -0.866400   -1.928379
     31          8           0        9.146827   -1.241396    0.464825
     32          1           0       -6.509140    2.601488   -0.787323
     33          1           0       -4.723816   -1.927265    0.455656
     34          1           0       -8.052228    0.671714   -0.424351
     35          1           0       -2.216032   -0.440501   -0.642106
     36          1           0       -2.358736   -0.032185    1.077077
     37          1           0       -4.850387    3.939179   -1.059112
     38          1           0       -3.436579    4.344839   -0.047478
     39          1           0       -3.217002    3.923430   -1.773568
     40          1           0       -1.212858    3.390010   -0.548062
     41          1           0        1.312629    3.306793   -0.387586
     42          1           0       -0.040332    0.597471    0.198059
     43          1           0        2.484597    0.638517    3.078790
     44          1           0        3.394209    2.177113    3.029781
     45          1           0        1.690978    2.123242    2.440871
     46          1           0        3.583830    1.932033   -1.759216
     47          1           0        2.780587    0.363762   -1.734802
     48          1           0        5.127109    0.263888    2.975691
     49          1           0        7.217084   -0.830505    2.067624
     50          1           0        5.918567   -0.249992   -1.976067
     51          1           0       -7.541882   -3.732453   -1.075522
 ---------------------------------------------------------------------

 The electronic state is 1-A.
 Alpha  occ. eigenvalues --  -89.14462 -89.02235 -19.20628 -19.16193 -19.16087
 Alpha  occ. eigenvalues --  -19.03272 -19.03264 -19.03147 -14.48708 -14.43571
 Alpha  occ. eigenvalues --  -10.32867 -10.29755 -10.29543 -10.28883 -10.28303
 Alpha  occ. eigenvalues --  -10.26583 -10.26257 -10.26212 -10.26162 -10.25828
 Alpha  occ. eigenvalues --  -10.25210 -10.25152 -10.25093 -10.24961 -10.24623
 Alpha  occ. eigenvalues --  -10.23500 -10.23160 -10.22455 -10.20382 -10.20123
 Alpha  occ. eigenvalues --  -10.19687  -8.17623  -8.05066  -6.14048  -6.13893
 Alpha  occ. eigenvalues --   -6.13749  -6.01402  -6.01367  -6.01358  -1.15286
 Alpha  occ. eigenvalues --   -1.07900  -1.04772  -1.04660  -1.02574  -1.02146
 Alpha  occ. eigenvalues --   -0.91478  -0.88998  -0.88880  -0.88619  -0.88285
 Alpha  occ. eigenvalues --   -0.86481  -0.84855  -0.82475  -0.80546  -0.78521
 Alpha  occ. eigenvalues --   -0.77680  -0.76223  -0.75328  -0.73972  -0.71150
 Alpha  occ. eigenvalues --   -0.67898  -0.65722  -0.65349  -0.63516  -0.62810
 Alpha  occ. eigenvalues --   -0.60853  -0.60254  -0.57989  -0.57008  -0.56538
 Alpha  occ. eigenvalues --   -0.55508  -0.54890  -0.54335  -0.53772  -0.53123
 Alpha  occ. eigenvalues --   -0.51762  -0.50848  -0.50139  -0.49681  -0.49045
 Alpha  occ. eigenvalues --   -0.48921  -0.48323  -0.47995  -0.47814  -0.47068
 Alpha  occ. eigenvalues --   -0.46680  -0.46470  -0.45712  -0.45047  -0.44801
 Alpha  occ. eigenvalues --   -0.44199  -0.43751  -0.42926  -0.42707  -0.41683
 Alpha  occ. eigenvalues --   -0.41228  -0.39876  -0.39783  -0.39089  -0.38371
 Alpha  occ. eigenvalues --   -0.37886  -0.37054  -0.36726  -0.36035  -0.35680
 Alpha  occ. eigenvalues --   -0.35420  -0.33706  -0.33640  -0.31606  -0.30675
 Alpha  occ. eigenvalues --   -0.30264  -0.27671  -0.27227  -0.24177  -0.24152
 Alpha  occ. eigenvalues --   -0.24088  -0.21373  -0.21129  -0.20384  -0.16975
 Alpha virt. eigenvalues --   -0.11954  -0.09517  -0.06560  -0.05651  -0.03029
 Alpha virt. eigenvalues --   -0.01332   0.00556   0.00918   0.01328   0.01672
 Alpha virt. eigenvalues --    0.02424   0.02985   0.03776   0.04474   0.05688

 Mulliken atomic charges:
              1
     1  C   -0.006228
     2  C    0.249005
     3  C   -0.143761
     4  C    0.049823
     5  C   -0.252139
     6  C    0.110051
     7  C    0.158299
     8  C    0.065241
     9  N   -0.306186
    10  C    0.077812
    11  C   -0.075871
    12  C   -0.103734
    13  C    0.082164
    14  C    0.072420
    15  N   -0.184282
    16  C    0.044333
    17  C    0.164346
    18  C   -0.115448
    19  C    0.195155
    20  C   -0.000393
    21  C    0.109158
    22  C   -0.241724
    23  C    0.044717
    24  S    0.987545
    25  S    0.993264
    26  O   -0.412907
    27  O   -0.325573
    28  O   -0.441785
    29  O   -0.517780
    30  O   -0.523054
    31  O   -0.519096
    32  H   -0.009198
    33  H   -0.019339
    34  H    0.001828
    35  H    0.075316
    36  H    0.071950
    37  H    0.051581
    38  H    0.051900
    39  H    0.054258
    40  H   -0.033221
    41  H    0.010954
    42  H   -0.016493
    43  H    0.074850
    44  H    0.076430
    45  H    0.064737
    46  H    0.086748
    47  H    0.085391
    48  H   -0.027420
    49  H   -0.002780
    50  H   -0.020005
    51  H    0.189142
 Sum of Mulliken atomic charges =   0.00000

 Dipole moment (field-independent basis, Debye):
    X=            -21.7934    Y=             13.1920    Z=              2.7388  Tot=             25.6219
 Quadrupole moment (field-independent basis, Debye-Ang):
   XX=           -440.3748   YY=           -182.6828   ZZ=           -187.8476
   XY=             37.9337   XZ=             45.7637   YZ=              0.2951

 Normal termination of Gaussian 09 at Wed Mar 18 21:20:28 2015.
