 Gaussian 09, Revision B.01,
 Gaussian 09:  EM64L-G09RevB.01 12-Aug-2010

 ------------------------------------------------------
 # opt=modredundant B3LYP/cc-pVDZ Geom=PrintInputOrient
 ------------------------------------------------------

 -------------------------------
 CY3 Dihedral Scan at MP2/6-31G*
 -------------------------------
 Symbolic Z-matrix:
 Charge =  0 Multiplicity = 1

 SCF Done:  E(RB3LYP) =  -2169.39489223     A.U. after   31 cycles
 SCF Done:  E(RB3LYP) =  -2169.39489903     A.U. after    8 cycles
 SCF Done:  E(RB3LYP) =  -2169.39489944     A.U. after    8 cycles
 Optimization completed.
    -- Stationary point found.
 SCF Done:  E(RB3LYP) =  -2169.39180810     A.U. after   13 cycles
 SCF Done:  E(RB3LYP) =  -2169.39180362     A.U. after   10 cycles
 SCF Done:  E(RB3LYP) =  -2169.39194515     A.U. after   11 cycles
 SCF Done:  E(RB3LYP) =  -2169.39195883     A.U. after   10 cycles
 SCF Done:  E(RB3LYP) =  -2169.39196506     A.U. after   11 cycles
 SCF Done:  E(RB3LYP) =  -2169.39196854     A.U. after   11 cycles
 SCF Done:  E(RB3LYP) =  -2169.39197053     A.U. after    8 cycles
 Optimization completed.
    -- Stationary point found.
 SCF Done:  E(RB3LYP) =  -2169.38288406     A.U. after   24 cycles
 SCF Done:  E(RB3LYP) =  -2169.38289141     A.U. after   24 cycles
 SCF Done:  E(RB3LYP) =  -2169.38289320     A.U. after   24 cycles
 SCF Done:  E(RB3LYP) =  -2169.38289328     A.U. after    8 cycles
 SCF Done:  E(RB3LYP) =  -2169.38289333     A.U. after    7 cycles
 SCF Done:  E(RB3LYP) =  -2169.38289358     A.U. after    7 cycles
 SCF Done:  E(RB3LYP) =  -2169.38289363     A.U. after    8 cycles
 SCF Done:  E(RB3LYP) =  -2169.38289372     A.U. after    8 cycles
 SCF Done:  E(RB3LYP) =  -2169.38289383     A.U. after    8 cycles
 SCF Done:  E(RB3LYP) =  -2169.38289385     A.U. after    7 cycles
 Optimization completed.
    -- Stationary point found.

                         Standard orientation:
 ---------------------------------------------------------------------
 Center     Atomic      Atomic             Coordinates (Angstroms)
 Number     Number       Type             X           Y           Z
 ---------------------------------------------------------------------
      1          6           0       -6.067913    1.617577    0.197328
      2          6           0       -4.693226    1.430155    0.036632
      3          6           0       -4.138858    0.130803    0.071379
      4          6           0       -4.960208   -0.978884    0.184823
      5          6           0       -6.352070   -0.771747    0.111258
      6          6           0       -6.876855    0.506764   -0.087756
      7          6           0       -2.635588    0.260768    0.051710
      8          6           0       -2.421992    1.765311    0.019886
      9          7           0       -3.655977    2.373902    0.015829
     10          6           0       -3.847329    3.813331   -0.016255
     11          6           0       -1.221721    2.442651    0.000104
     12          6           0        1.256494    2.439925   -0.019153
     13          6           0        0.037270    1.793098   -0.002338
     14          6           0        3.999325    3.758507   -0.044085
     15          7           0        3.705060    2.331447   -0.033981
     16          6           0        2.493663    1.754037   -0.021879
     17          6           0        2.685567    0.250795   -0.014287
     18          6           0        4.183833    0.089525   -0.024536
     19          6           0        4.751245    1.373573   -0.039039
     20          6           0        6.130434    1.591380   -0.068313
     21          6           0        6.944682    0.456473   -0.072073
     22          6           0        6.392020   -0.834304   -0.040572
     23          6           0        5.000763   -1.028623   -0.032551
     24         16           0        7.497619   -2.305254    0.032025
     25         16           0       -7.442866   -2.187651    0.080124
     26          8           0       -8.832063   -1.718403    0.209319
     27          8           0       -7.194296   -2.683424   -1.492592
     28          8           0       -6.894680   -3.253766    0.945492
     29          8           0        7.661463   -2.467134    1.514813
     30          8           0        6.682394   -3.371404   -0.637441
     31          8           0        8.722183   -1.853158   -0.702692
     32          1           0       -6.512423    2.613608    0.234992
     33          1           0       -4.557776   -1.985091    0.310221
     34          1           0       -7.958962    0.621964   -0.170801
     35          1           0       -2.182174   -0.222910   -0.829280
     36          1           0       -2.166580   -0.188384    0.942403
     37          1           0       -4.906902    4.036830   -0.183596
     38          1           0       -3.530064    4.276296    0.932565
     39          1           0       -3.265789    4.256363   -0.839541
     40          1           0       -1.231161    3.534550   -0.009368
     41          1           0        1.259240    3.531679   -0.033475
     42          1           0        0.038675    0.698906    0.010384
     43          1           0        4.650193    3.998802    0.809210
     44          1           0        4.527093    4.018263   -0.974070
     45          1           0        3.079937    4.346444    0.028199
     46          1           0        2.201768   -0.205141   -0.894139
     47          1           0        2.215282   -0.194219    0.878438
     48          1           0        6.562248    2.593416   -0.096587
     49          1           0        8.031970    0.540765   -0.115203
     50          1           0        4.620001   -2.051857   -0.046323
     51          1           0       -7.211431   -3.659623   -1.458231
 ---------------------------------------------------------------------

 The electronic state is 1-A.
 Alpha  occ. eigenvalues --  -89.14947 -89.01689 -19.21121 -19.16629 -19.16565
 Alpha  occ. eigenvalues --  -19.02755 -19.02732 -19.02655 -14.46025 -14.45193
 Alpha  occ. eigenvalues --  -10.31118 -10.31108 -10.29732 -10.29282 -10.28665
 Alpha  occ. eigenvalues --  -10.27008 -10.26994 -10.26573 -10.25956 -10.25811
 Alpha  occ. eigenvalues --  -10.25688 -10.25529 -10.25238 -10.25169 -10.25083
 Alpha  occ. eigenvalues --  -10.24677 -10.22009 -10.21342 -10.19515 -10.19264
 Alpha  occ. eigenvalues --  -10.18821  -8.18109  -8.04524  -6.14533  -6.14374
 Alpha  occ. eigenvalues --   -6.14241  -6.00854  -6.00827  -6.00819  -1.15758
 Alpha  occ. eigenvalues --   -1.06006  -1.05709  -1.05257  -1.03050  -1.01586
 Alpha  occ. eigenvalues --   -0.92338  -0.88884  -0.88333  -0.88055  -0.87823
 Alpha  occ. eigenvalues --   -0.86862  -0.84793  -0.82717  -0.80948  -0.78236
 Alpha  occ. eigenvalues --   -0.77283  -0.76533  -0.74946  -0.73599  -0.71631
 Alpha  occ. eigenvalues --   -0.68346  -0.66251  -0.65090  -0.63028  -0.62374
 Alpha  occ. eigenvalues --   -0.60873  -0.60088  -0.58576  -0.57328  -0.56824
 Alpha  occ. eigenvalues --   -0.54845  -0.54520  -0.54224  -0.53951  -0.53380
 Alpha  occ. eigenvalues --   -0.52164  -0.51251  -0.50855  -0.49793  -0.49020
 Alpha  occ. eigenvalues --   -0.48681  -0.48528  -0.48140  -0.47471  -0.47152
 Alpha  occ. eigenvalues --   -0.46734  -0.46106  -0.45496  -0.45326  -0.44457
 Alpha  occ. eigenvalues --   -0.44073  -0.43494  -0.43417  -0.42120  -0.41410
 Alpha  occ. eigenvalues --   -0.41068  -0.40640  -0.40383  -0.39203  -0.38426
 Alpha  occ. eigenvalues --   -0.38254  -0.36691  -0.36280  -0.36197  -0.35297
 Alpha  occ. eigenvalues --   -0.34687  -0.34103  -0.34051  -0.32063  -0.31160
 Alpha  occ. eigenvalues --   -0.31078  -0.27337  -0.26643  -0.24254  -0.23626
 Alpha  occ. eigenvalues --   -0.23519  -0.20824  -0.20580  -0.19621  -0.16458
 Alpha virt. eigenvalues --   -0.13803  -0.07717  -0.07531  -0.03942  -0.01937
 Alpha virt. eigenvalues --   -0.00205  -0.00118   0.00514   0.01118   0.01470
 Alpha virt. eigenvalues --    0.02395   0.03246   0.03760   0.04362   0.05078

 Mulliken atomic charges:
              1
     1  C    0.000557
     2  C    0.212919
     3  C   -0.132730
     4  C    0.070358
     5  C   -0.248220
     6  C    0.092905
     7  C    0.147868
     8  C    0.068299
     9  N   -0.291469
    10  C    0.077116
    11  C   -0.054602
    12  C   -0.037981
    13  C    0.061730
    14  C    0.072911
    15  N   -0.251491
    16  C    0.058632
    17  C    0.149520
    18  C   -0.112261
    19  C    0.214274
    20  C   -0.008312
    21  C    0.108277
    22  C   -0.242621
    23  C    0.042514
    24  S    0.986118
    25  S    0.990608
    26  O   -0.412422
    27  O   -0.326182
    28  O   -0.436370
    29  O   -0.517510
    30  O   -0.525439
    31  O   -0.520332
    32  H    0.000628
    33  H   -0.012864
    34  H    0.016979
    35  H    0.080802
    36  H    0.081065
    37  H    0.054319
    38  H    0.057473
    39  H    0.059435
    40  H   -0.031292
    41  H   -0.023206
    42  H   -0.008479
    43  H    0.073130
    44  H    0.071620
    45  H    0.054219
    46  H    0.081354
    47  H    0.081917
    48  H   -0.032151
    49  H   -0.006585
    50  H   -0.026415
    51  H    0.191387
 Sum of Mulliken atomic charges =   0.00000

 Dipole moment (field-independent basis, Debye):
    X=            -21.5286    Y=             19.0363    Z=             -1.6891  Tot=             28.7874
 Quadrupole moment (field-independent basis, Debye-Ang):
   XX=           -388.3584   YY=           -178.4404   ZZ=           -202.9351
   XY=             68.3449   XZ=              7.7776   YZ=              6.9489

 Normal termination of Gaussian 09 at Sat Mar 21 11:26:00 2015.
