 Gaussian 09, Revision B.01,
 Gaussian 09:  EM64L-G09RevB.01 12-Aug-2010

 ------------------------------------------------------
 # opt=modredundant B3LYP/cc-pVDZ Geom=PrintInputOrient
 ------------------------------------------------------

 -------------------------------
 CY3 Dihedral Scan at MP2/6-31G*
 -------------------------------
 Symbolic Z-matrix:
 Charge =  0 Multiplicity = 1

 SCF Done:  E(RB3LYP) =  -2169.39489223     A.U. after   31 cycles
 SCF Done:  E(RB3LYP) =  -2169.39489902     A.U. after    8 cycles
 SCF Done:  E(RB3LYP) =  -2169.39489943     A.U. after    8 cycles
 Optimization completed.
    -- Stationary point found.
 SCF Done:  E(RB3LYP) =  -2169.39181857     A.U. after   13 cycles
 SCF Done:  E(RB3LYP) =  -2169.39182923     A.U. after    8 cycles
 SCF Done:  E(RB3LYP) =  -2169.39207759     A.U. after   12 cycles
 SCF Done:  E(RB3LYP) =  -2169.39209237     A.U. after   10 cycles
 SCF Done:  E(RB3LYP) =  -2169.39209583     A.U. after   10 cycles
 SCF Done:  E(RB3LYP) =  -2169.39209802     A.U. after   10 cycles
 SCF Done:  E(RB3LYP) =  -2169.39209909     A.U. after    8 cycles
 SCF Done:  E(RB3LYP) =  -2169.39211095     A.U. after   10 cycles
 SCF Done:  E(RB3LYP) =  -2169.39211147     A.U. after   10 cycles
 SCF Done:  E(RB3LYP) =  -2169.39211164     A.U. after    8 cycles
 SCF Done:  E(RB3LYP) =  -2169.39211166     A.U. after    7 cycles
 Optimization completed.
    -- Stationary point found.
 SCF Done:  E(RB3LYP) =  -2169.38276871     A.U. after   13 cycles
 SCF Done:  E(RB3LYP) =  -2169.38339059     A.U. after   12 cycles
 SCF Done:  E(RB3LYP) =  -2169.38339632     A.U. after   12 cycles
 SCF Done:  E(RB3LYP) =  -2169.38340002     A.U. after   11 cycles
 SCF Done:  E(RB3LYP) =  -2169.38340033     A.U. after    8 cycles
 SCF Done:  E(RB3LYP) =  -2169.38340043     A.U. after    8 cycles
 Optimization completed.
    -- Stationary point found.

                         Standard orientation:
 ---------------------------------------------------------------------
 Center     Atomic      Atomic             Coordinates (Angstroms)
 Number     Number       Type             X           Y           Z
 ---------------------------------------------------------------------
      1          6           0        6.064732    1.613486   -0.239036
      2          6           0        4.686560    1.398951   -0.112875
      3          6           0        4.126789    0.104338   -0.134381
      4          6           0        4.948604   -1.014393   -0.130691
      5          6           0        6.330902   -0.769525   -0.044780
      6          6           0        6.856633    0.472253   -0.416902
      7          6           0        2.624249    0.239810   -0.116185
      8          6           0        2.416764    1.742721   -0.029364
      9          7           0        3.652130    2.345117   -0.016963
     10          6           0        3.847955    3.782597    0.050251
     11          6           0        1.218523    2.423756    0.017727
     12          6           0       -1.259645    2.429052    0.056023
     13          6           0       -0.042351    1.779091    0.011342
     14          6           0       -3.998206    3.753959    0.144897
     15          7           0       -3.708284    2.327099    0.090931
     16          6           0       -2.498583    1.747030    0.051010
     17          6           0       -2.695000    0.245017    0.002525
     18          6           0       -4.193606    0.087489    0.022949
     19          6           0       -4.757159    1.372062    0.079108
     20          6           0       -6.135305    1.592355    0.127831
     21          6           0       -6.952759    0.459758    0.107511
     22          6           0       -6.404161   -0.830911    0.034462
     23          6           0       -5.013552   -1.028354    0.007509
     24         16           0       -7.514048   -2.296869   -0.068883
     25         16           0        7.436952   -2.186301   -0.016819
     26          8           0        8.695310   -1.825038   -0.687328
     27          8           0        7.748970   -2.259691    1.616811
     28          8           0        6.685343   -3.417833   -0.347751
     29          8           0       -7.682623   -2.424461   -1.554469
     30          8           0       -6.699513   -3.380247    0.573279
     31          8           0       -8.735302   -1.858987    0.679897
     32          1           0        6.491401    2.608931   -0.362823
     33          1           0        4.560028   -2.032389   -0.085848
     34          1           0        7.929788    0.564514   -0.591011
     35          1           0        2.164172   -0.278356    0.740795
     36          1           0        2.157672   -0.169605   -1.027690
     37          1           0        4.910266    4.001327    0.204867
     38          1           0        3.513010    4.272778   -0.878922
     39          1           0        3.283211    4.202862    0.896613
     40          1           0        1.232334    3.514857    0.059143
     41          1           0       -1.258683    3.520024    0.099967
     42          1           0       -0.047970    0.685653   -0.031765
     43          1           0       -4.655784    4.020899   -0.695265
     44          1           0       -4.517006    3.988176    1.086657
     45          1           0       -3.077714    4.341241    0.081688
     46          1           0       -2.203827   -0.237377    0.863982
     47          1           0       -2.234916   -0.175324   -0.907317
     48          1           0       -6.564112    2.594275    0.188367
     49          1           0       -8.039389    0.545379    0.163106
     50          1           0       -4.635229   -2.052413   -0.011025
     51          1           0        7.493583   -3.163439    1.882853
 ---------------------------------------------------------------------

 The electronic state is 1-A.
 Alpha  occ. eigenvalues --  -89.15040 -89.01635 -19.21222 -19.16894 -19.16713
 Alpha  occ. eigenvalues --  -19.02699 -19.02679 -19.02597 -14.45940 -14.45139
 Alpha  occ. eigenvalues --  -10.31069 -10.31053 -10.29715 -10.29288 -10.28609
 Alpha  occ. eigenvalues --  -10.27003 -10.26938 -10.26740 -10.25999 -10.25945
 Alpha  occ. eigenvalues --  -10.25778 -10.25622 -10.25176 -10.25112 -10.25006
 Alpha  occ. eigenvalues --  -10.24618 -10.21945 -10.21283 -10.19463 -10.19201
 Alpha  occ. eigenvalues --  -10.18757  -8.18201  -8.04470  -6.14623  -6.14478
 Alpha  occ. eigenvalues --   -6.14321  -6.00800  -6.00774  -6.00765  -1.15964
 Alpha  occ. eigenvalues --   -1.05968  -1.05633  -1.05382  -1.03296  -1.01531
 Alpha  occ. eigenvalues --   -0.92426  -0.88833  -0.88278  -0.87999  -0.87762
 Alpha  occ. eigenvalues --   -0.86854  -0.84758  -0.82684  -0.80979  -0.78189
 Alpha  occ. eigenvalues --   -0.77222  -0.76513  -0.74908  -0.73541  -0.71564
 Alpha  occ. eigenvalues --   -0.68266  -0.66336  -0.65147  -0.63092  -0.62342
 Alpha  occ. eigenvalues --   -0.60817  -0.60067  -0.58745  -0.57303  -0.56761
 Alpha  occ. eigenvalues --   -0.54799  -0.54417  -0.54176  -0.53922  -0.53315
 Alpha  occ. eigenvalues --   -0.52103  -0.51318  -0.51025  -0.49810  -0.49366
 Alpha  occ. eigenvalues --   -0.48651  -0.48472  -0.48335  -0.47495  -0.46983
 Alpha  occ. eigenvalues --   -0.46679  -0.46071  -0.45517  -0.45306  -0.44737
 Alpha  occ. eigenvalues --   -0.44039  -0.43456  -0.43351  -0.42067  -0.41367
 Alpha  occ. eigenvalues --   -0.41012  -0.40733  -0.40456  -0.39003  -0.38334
 Alpha  occ. eigenvalues --   -0.38200  -0.36698  -0.36225  -0.36129  -0.35415
 Alpha  occ. eigenvalues --   -0.34632  -0.34358  -0.34310  -0.32559  -0.31223
 Alpha  occ. eigenvalues --   -0.30997  -0.27224  -0.26582  -0.24160  -0.23572
 Alpha  occ. eigenvalues --   -0.23463  -0.20769  -0.20528  -0.19565  -0.16405
 Alpha virt. eigenvalues --   -0.13743  -0.07840  -0.07459  -0.03913  -0.01883
 Alpha virt. eigenvalues --   -0.00162  -0.00043   0.00488   0.01051   0.01496
 Alpha virt. eigenvalues --    0.02484   0.03168   0.03780   0.04433   0.05013

 Mulliken atomic charges:
              1
     1  C   -0.014007
     2  C    0.238531
     3  C   -0.144681
     4  C    0.053873
     5  C   -0.266383
     6  C    0.106073
     7  C    0.154165
     8  C    0.067684
     9  N   -0.296309
    10  C    0.074939
    11  C   -0.058919
    12  C   -0.038464
    13  C    0.061853
    14  C    0.073038
    15  N   -0.251898
    16  C    0.058723
    17  C    0.149408
    18  C   -0.112486
    19  C    0.214339
    20  C   -0.008422
    21  C    0.107716
    22  C   -0.242652
    23  C    0.042934
    24  S    0.986020
    25  S    0.999007
    26  O   -0.407154
    27  O   -0.320062
    28  O   -0.438463
    29  O   -0.517874
    30  O   -0.525693
    31  O   -0.520617
    32  H   -0.000968
    33  H   -0.000320
    34  H    0.021128
    35  H    0.078670
    36  H    0.082544
    37  H    0.056652
    38  H    0.057286
    39  H    0.059643
    40  H   -0.031737
    41  H   -0.023618
    42  H   -0.008687
    43  H    0.072863
    44  H    0.071365
    45  H    0.054005
    46  H    0.081015
    47  H    0.081734
    48  H   -0.032381
    49  H   -0.006782
    50  H   -0.026592
    51  H    0.189959
 Sum of Mulliken atomic charges =   0.00000

 Dipole moment (field-independent basis, Debye):
    X=             21.9235    Y=             19.2977    Z=              2.0436  Tot=             29.2783
 Quadrupole moment (field-independent basis, Debye-Ang):
   XX=           -387.8225   YY=           -183.0531   ZZ=           -200.1881
   XY=            -66.0190   XZ=              6.6208   YZ=             -7.5452

 Normal termination of Gaussian 09 at Thu Mar 19 07:29:55 2015.
