 Gaussian 09, Revision B.01,
 Gaussian 09:  EM64L-G09RevB.01 12-Aug-2010

 ------------------------------------------------------
 # opt=modredundant B3LYP/cc-pVDZ Geom=PrintInputOrient
 ------------------------------------------------------

 -------------------------------
 CY3 Dihedral Scan at MP2/6-31G*
 -------------------------------
 Symbolic Z-matrix:
 Charge =  0 Multiplicity = 1

 SCF Done:  E(RB3LYP) =  -2169.39489223     A.U. after   31 cycles
 SCF Done:  E(RB3LYP) =  -2169.39489903     A.U. after    8 cycles
 SCF Done:  E(RB3LYP) =  -2169.39489944     A.U. after    8 cycles
 Optimization completed.
    -- Stationary point found.
 SCF Done:  E(RB3LYP) =  -2169.39183711     A.U. after   13 cycles
 SCF Done:  E(RB3LYP) =  -2169.39185022     A.U. after   10 cycles
 SCF Done:  E(RB3LYP) =  -2169.39227842     A.U. after   12 cycles
 SCF Done:  E(RB3LYP) =  -2169.39232980     A.U. after   10 cycles
 SCF Done:  E(RB3LYP) =  -2169.39234574     A.U. after   10 cycles
 SCF Done:  E(RB3LYP) =  -2169.39235494     A.U. after   10 cycles
 SCF Done:  E(RB3LYP) =  -2169.39236504     A.U. after   10 cycles
 Optimization completed.
    -- Stationary point found.
 SCF Done:  E(RB3LYP) =  -2169.38449006     A.U. after    7 cycles
 SCF Done:  E(RB3LYP) =  -2169.38449036     A.U. after    8 cycles
 SCF Done:  E(RB3LYP) =  -2169.38449081     A.U. after   10 cycles
 SCF Done:  E(RB3LYP) =  -2169.38449167     A.U. after   10 cycles
 SCF Done:  E(RB3LYP) =  -2169.38449252     A.U. after   10 cycles
 SCF Done:  E(RB3LYP) =  -2169.38449249     A.U. after   10 cycles
 SCF Done:  E(RB3LYP) =  -2169.38449269     A.U. after    9 cycles
 SCF Done:  E(RB3LYP) =  -2169.38449276     A.U. after    9 cycles
 SCF Done:  E(RB3LYP) =  -2169.38449274     A.U. after    7 cycles
 SCF Done:  E(RB3LYP) =  -2169.38449276     A.U. after    6 cycles
 Optimization completed.
    -- Stationary point found.

                         Standard orientation:
 ---------------------------------------------------------------------
 Center     Atomic      Atomic             Coordinates (Angstroms)
 Number     Number       Type             X           Y           Z
 ---------------------------------------------------------------------
      1          6           0        6.026039    1.593934   -0.493642
      2          6           0        4.686848    1.382509   -0.152214
      3          6           0        4.125421    0.091693   -0.221345
      4          6           0        4.947096   -1.003257   -0.001586
      5          6           0        6.331546   -0.785316   -0.136658
      6          6           0        6.863266    0.469528   -0.451489
      7          6           0        2.623525    0.227228   -0.137808
      8          6           0        2.419276    1.729952   -0.033677
      9          7           0        3.656946    2.329543   -0.036665
     10          6           0        3.867882    3.764780    0.028859
     11          6           0        1.222836    2.412154    0.024856
     12          6           0       -1.254677    2.420419    0.086398
     13          6           0       -0.039077    1.768539    0.033365
     14          6           0       -3.989809    3.749115    0.221123
     15          7           0       -3.703132    2.322606    0.143378
     16          6           0       -2.495147    1.740609    0.087522
     17          6           0       -2.695137    0.239891    0.019984
     18          6           0       -4.194138    0.085815    0.037337
     19          6           0       -4.754432    1.370844    0.113795
     20          6           0       -6.132160    1.594251    0.161551
     21          6           0       -6.952555    0.464434    0.120802
     22          6           0       -6.407158   -0.826497    0.029382
     23          6           0       -5.016997   -1.027400    0.002843
     24         16           0       -7.520688   -2.287283   -0.101990
     25         16           0        7.442378   -2.180432    0.016898
     26          8           0        8.718599   -1.844941   -0.634383
     27          8           0        7.678865   -2.156389    1.666552
     28          8           0        6.716483   -3.435469   -0.277153
     29          8           0       -7.683102   -2.389734   -1.590287
     30          8           0       -6.711956   -3.383380    0.525549
     31          8           0       -8.743872   -1.858064    0.648561
     32          1           0        6.440693    2.586513   -0.669897
     33          1           0        4.560964   -2.015002    0.130283
     34          1           0        7.930674    0.559155   -0.654541
     35          1           0        2.194714   -0.302827    0.727957
     36          1           0        2.125703   -0.170894   -1.037714
     37          1           0        4.921972    3.966630    0.253259
     38          1           0        3.602311    4.253267   -0.923674
     39          1           0        3.256529    4.199026    0.833902
     40          1           0        1.237769    3.503530    0.058781
     41          1           0       -1.251668    3.511537    0.126496
     42          1           0       -0.046297    0.675003   -0.006393
     43          1           0       -4.563036    4.056539   -0.666304
     44          1           0       -4.595066    3.948210    1.117673
     45          1           0       -3.064842    4.330165    0.275202
     46          1           0       -2.205985   -0.254360    0.876022
     47          1           0       -2.235105   -0.170277   -0.894378
     48          1           0       -6.558532    2.596444    0.233657
     49          1           0       -8.039174    0.552172    0.173221
     50          1           0       -4.641410   -2.052055   -0.031559
     51          1           0        7.611217   -3.089895    1.945400
 ---------------------------------------------------------------------

 The electronic state is 1-A.
 Alpha  occ. eigenvalues --  -89.14937 -89.01678 -19.21084 -19.16667 -19.16555
 Alpha  occ. eigenvalues --  -19.02741 -19.02723 -19.02647 -14.46014 -14.45142
 Alpha  occ. eigenvalues --  -10.31124 -10.31108 -10.29720 -10.29287 -10.28658
 Alpha  occ. eigenvalues --  -10.27015 -10.26988 -10.26561 -10.26023 -10.25909
 Alpha  occ. eigenvalues --  -10.25623 -10.25561 -10.25228 -10.25158 -10.25073
 Alpha  occ. eigenvalues --  -10.24678 -10.21998 -10.21333 -10.19510 -10.19249
 Alpha  occ. eigenvalues --  -10.18810  -8.18096  -8.04514  -6.14519  -6.14366
 Alpha  occ. eigenvalues --   -6.14224  -6.00844  -6.00817  -6.00808  -1.15782
 Alpha  occ. eigenvalues --   -1.06017  -1.05699  -1.05237  -1.03082  -1.01576
 Alpha  occ. eigenvalues --   -0.92362  -0.88887  -0.88324  -0.88044  -0.87812
 Alpha  occ. eigenvalues --   -0.86854  -0.84760  -0.82693  -0.80976  -0.78236
 Alpha  occ. eigenvalues --   -0.77266  -0.76518  -0.74956  -0.73590  -0.71580
 Alpha  occ. eigenvalues --   -0.68278  -0.66322  -0.65100  -0.63054  -0.62374
 Alpha  occ. eigenvalues --   -0.60871  -0.60095  -0.58654  -0.57301  -0.56773
 Alpha  occ. eigenvalues --   -0.54839  -0.54529  -0.54137  -0.53921  -0.53369
 Alpha  occ. eigenvalues --   -0.52151  -0.51342  -0.50902  -0.49814  -0.49106
 Alpha  occ. eigenvalues --   -0.48692  -0.48521  -0.48249  -0.47460  -0.47121
 Alpha  occ. eigenvalues --   -0.46721  -0.46093  -0.45476  -0.45321  -0.44533
 Alpha  occ. eigenvalues --   -0.44080  -0.43519  -0.43236  -0.42115  -0.41430
 Alpha  occ. eigenvalues --   -0.41057  -0.40692  -0.40462  -0.39107  -0.38386
 Alpha  occ. eigenvalues --   -0.38246  -0.36675  -0.36268  -0.36145  -0.35296
 Alpha  occ. eigenvalues --   -0.34677  -0.34158  -0.34101  -0.32178  -0.31192
 Alpha  occ. eigenvalues --   -0.31087  -0.27327  -0.26634  -0.24243  -0.23616
 Alpha  occ. eigenvalues --   -0.23508  -0.20811  -0.20571  -0.19610  -0.16448
 Alpha virt. eigenvalues --   -0.13806  -0.07709  -0.07376  -0.03907  -0.01926
 Alpha virt. eigenvalues --   -0.00191   0.00004   0.00595   0.01063   0.01491
 Alpha virt. eigenvalues --    0.02344   0.03114   0.03559   0.04432   0.05079

 Mulliken atomic charges:
              1
     1  C   -0.002529
     2  C    0.212664
     3  C   -0.127847
     4  C    0.075457
     5  C   -0.262320
     6  C    0.107351
     7  C    0.126584
     8  C    0.073607
     9  N   -0.284652
    10  C    0.075869
    11  C   -0.055683
    12  C   -0.038305
    13  C    0.062126
    14  C    0.073074
    15  N   -0.251446
    16  C    0.058402
    17  C    0.149511
    18  C   -0.112534
    19  C    0.214487
    20  C   -0.008277
    21  C    0.107806
    22  C   -0.242636
    23  C    0.043075
    24  S    0.986135
    25  S    0.997094
    26  O   -0.409735
    27  O   -0.325695
    28  O   -0.439644
    29  O   -0.517557
    30  O   -0.525357
    31  O   -0.520360
    32  H   -0.003431
    33  H    0.001378
    34  H    0.008785
    35  H    0.077211
    36  H    0.080145
    37  H    0.057422
    38  H    0.055732
    39  H    0.060036
    40  H   -0.031176
    41  H   -0.023187
    42  H   -0.009098
    43  H    0.072266
    44  H    0.072418
    45  H    0.054004
    46  H    0.081488
    47  H    0.081788
    48  H   -0.032228
    49  H   -0.006604
    50  H   -0.026318
    51  H    0.190702
 Sum of Mulliken atomic charges =   0.00000

 Dipole moment (field-independent basis, Debye):
    X=             21.8612    Y=             19.3495    Z=              2.2571  Tot=             29.2815
 Quadrupole moment (field-independent basis, Debye-Ang):
   XX=           -386.2171   YY=           -183.4812   ZZ=           -199.7947
   XY=            -65.8105   XZ=              5.1966   YZ=             -7.9549

 Normal termination of Gaussian 09 at Sat Mar 21 02:29:03 2015.
