 Gaussian 09, Revision B.01,
 Gaussian 09:  EM64L-G09RevB.01 12-Aug-2010

 ------------------------------------------------------
 # opt=modredundant B3LYP/cc-pVDZ Geom=PrintInputOrient
 ------------------------------------------------------

 -------------------------------
 CY3 Dihedral Scan at MP2/6-31G*
 -------------------------------
 Symbolic Z-matrix:
 Charge =  0 Multiplicity = 1

 SCF Done:  E(RB3LYP) =  -2169.39489223     A.U. after   31 cycles
 SCF Done:  E(RB3LYP) =  -2169.39489902     A.U. after    8 cycles
 SCF Done:  E(RB3LYP) =  -2169.39489943     A.U. after    8 cycles
 Optimization completed.
    -- Stationary point found.
 SCF Done:  E(RB3LYP) =  -2169.39338593     A.U. after   17 cycles
 SCF Done:  E(RB3LYP) =  -2169.39340298     A.U. after   10 cycles
 SCF Done:  E(RB3LYP) =  -2169.39368345     A.U. after   12 cycles
 SCF Done:  E(RB3LYP) =  -2169.39370969     A.U. after   11 cycles
 SCF Done:  E(RB3LYP) =  -2169.39371193     A.U. after    8 cycles
 SCF Done:  E(RB3LYP) =  -2169.39371230     A.U. after    8 cycles
 SCF Done:  E(RB3LYP) =  -2169.39371244     A.U. after    7 cycles
 Optimization completed.
    -- Stationary point found.
 SCF Done:  E(RB3LYP) =  -2169.39057791     A.U. after   12 cycles
 SCF Done:  E(RB3LYP) =  -2169.39057449     A.U. after   11 cycles
 SCF Done:  E(RB3LYP) =  -2169.39058708     A.U. after   10 cycles
 SCF Done:  E(RB3LYP) =  -2169.39058905     A.U. after   10 cycles
 SCF Done:  E(RB3LYP) =  -2169.39059055     A.U. after   10 cycles
 SCF Done:  E(RB3LYP) =  -2169.39059098     A.U. after    7 cycles
 SCF Done:  E(RB3LYP) =  -2169.39059242     A.U. after   10 cycles
 SCF Done:  E(RB3LYP) =  -2169.39059320     A.U. after   10 cycles
 SCF Done:  E(RB3LYP) =  -2169.39059361     A.U. after    9 cycles
 SCF Done:  E(RB3LYP) =  -2169.39059372     A.U. after    7 cycles
 Optimization completed.
    -- Stationary point found.

                         Standard orientation:
 ---------------------------------------------------------------------
 Center     Atomic      Atomic             Coordinates (Angstroms)
 Number     Number       Type             X           Y           Z
 ---------------------------------------------------------------------
      1          6           0        6.068103    1.632030   -0.005879
      2          6           0        4.689440    1.415135    0.012217
      3          6           0        4.138479    0.119813   -0.015440
      4          6           0        4.963732   -0.990658   -0.057429
      5          6           0        6.350640   -0.771594   -0.061531
      6          6           0        6.903370    0.510119   -0.047610
      7          6           0        2.635031    0.243155   -0.006386
      8          6           0        2.416630    1.745894    0.030791
      9          7           0        3.646461    2.357568    0.044663
     10          6           0        3.824860    3.798784    0.079140
     11          6           0        1.213147    2.420727    0.045952
     12          6           0       -1.265917    2.411156    0.045584
     13          6           0       -0.042367    1.768579    0.035803
     14          6           0       -3.873057    3.745989   -0.258124
     15          7           0       -3.699414    2.326814    0.050494
     16          6           0       -2.499227    1.722426    0.052195
     17          6           0       -2.708445    0.225746   -0.005081
     18          6           0       -4.208310    0.092256   -0.076483
     19          6           0       -4.762959    1.384587   -0.048743
     20          6           0       -6.131215    1.595329    0.149597
     21          6           0       -6.954870    0.468554    0.161944
     22          6           0       -6.418615   -0.822958    0.034719
     23          6           0       -5.031133   -1.021459   -0.049530
     24         16           0       -7.534178   -2.285752   -0.009179
     25         16           0        7.446188   -2.186699   -0.137109
     26          8           0        8.772497   -1.735360   -0.587537
     27          8           0        7.537348   -2.538837    1.488951
     28          8           0        6.748950   -3.326701   -0.770934
     29          8           0       -7.770857   -2.422658   -1.484651
     30          8           0       -6.693032   -3.367241    0.601623
     31          8           0       -8.719047   -1.841830    0.792686
     32          1           0        6.500909    2.632376    0.001530
     33          1           0        4.568586   -2.006489   -0.099643
     34          1           0        7.986951    0.625244   -0.079614
     35          1           0        2.179051   -0.246893    0.869568
     36          1           0        2.173079   -0.203983   -0.901835
     37          1           0        4.892598    4.037237    0.126981
     38          1           0        3.399362    4.265803   -0.823841
     39          1           0        3.331072    4.226757    0.965989
     40          1           0        1.220015    3.512437    0.066543
     41          1           0       -1.278762    3.503076    0.061688
     42          1           0       -0.041847    0.674213    0.019370
     43          1           0       -3.471266    3.964563   -1.259102
     44          1           0       -4.940565    3.987767   -0.237446
     45          1           0       -3.359836    4.370255    0.487000
     46          1           0       -2.290945   -0.274067    0.884764
     47          1           0       -2.188225   -0.193785   -0.882789
     48          1           0       -6.554861    2.594939    0.267992
     49          1           0       -8.033310    0.557517    0.303951
     50          1           0       -4.653602   -2.046056   -0.053400
     51          1           0        7.489337   -3.512997    1.541469
 ---------------------------------------------------------------------

 The electronic state is 1-A.
 Alpha  occ. eigenvalues --  -89.15097 -89.01651 -19.21239 -19.16826 -19.16710
 Alpha  occ. eigenvalues --  -19.02721 -19.02697 -19.02631 -14.45504 -14.45323
 Alpha  occ. eigenvalues --  -10.31238 -10.30659 -10.29833 -10.29394 -10.28412
 Alpha  occ. eigenvalues --  -10.27139 -10.27055 -10.26743 -10.26128 -10.25972
 Alpha  occ. eigenvalues --  -10.25788 -10.25649 -10.25192 -10.24993 -10.24963
 Alpha  occ. eigenvalues --  -10.24761 -10.21871 -10.21247 -10.19375 -10.19118
 Alpha  occ. eigenvalues --  -10.18747  -8.18257  -8.04487  -6.14680  -6.14525
 Alpha  occ. eigenvalues --   -6.14386  -6.00817  -6.00791  -6.00782  -1.15937
 Alpha  occ. eigenvalues --   -1.06145  -1.05398  -1.05272  -1.03235  -1.01548
 Alpha  occ. eigenvalues --   -0.92461  -0.88871  -0.88290  -0.88020  -0.87661
 Alpha  occ. eigenvalues --   -0.86847  -0.84680  -0.82738  -0.81033  -0.78314
 Alpha  occ. eigenvalues --   -0.77184  -0.76508  -0.74783  -0.73524  -0.71673
 Alpha  occ. eigenvalues --   -0.68316  -0.66523  -0.65084  -0.63081  -0.62205
 Alpha  occ. eigenvalues --   -0.60879  -0.59984  -0.58786  -0.57342  -0.56703
 Alpha  occ. eigenvalues --   -0.54721  -0.54520  -0.54314  -0.54008  -0.53157
 Alpha  occ. eigenvalues --   -0.52067  -0.51550  -0.51037  -0.49923  -0.49187
 Alpha  occ. eigenvalues --   -0.48569  -0.48365  -0.48340  -0.47552  -0.47233
 Alpha  occ. eigenvalues --   -0.46402  -0.46127  -0.45601  -0.45182  -0.44584
 Alpha  occ. eigenvalues --   -0.43870  -0.43635  -0.43304  -0.42068  -0.41492
 Alpha  occ. eigenvalues --   -0.41010  -0.40795  -0.40332  -0.39190  -0.38449
 Alpha  occ. eigenvalues --   -0.38198  -0.36698  -0.36293  -0.36203  -0.35286
 Alpha  occ. eigenvalues --   -0.34560  -0.34306  -0.34225  -0.32267  -0.31549
 Alpha  occ. eigenvalues --   -0.31286  -0.27342  -0.26430  -0.24240  -0.23588
 Alpha  occ. eigenvalues --   -0.23496  -0.20779  -0.20551  -0.19588  -0.16422
 Alpha virt. eigenvalues --   -0.13994  -0.07531  -0.07396  -0.03912  -0.01820
 Alpha virt. eigenvalues --   -0.00510  -0.00165   0.00496   0.01084   0.01573
 Alpha virt. eigenvalues --    0.02625   0.03226   0.03816   0.04625   0.05132

 Mulliken atomic charges:
              1
     1  C   -0.002771
     2  C    0.245624
     3  C   -0.139311
     4  C    0.051459
     5  C   -0.250259
     6  C    0.111918
     7  C    0.158580
     8  C    0.068063
     9  N   -0.299443
    10  C    0.075809
    11  C   -0.059187
    12  C   -0.038770
    13  C    0.059510
    14  C    0.074296
    15  N   -0.243311
    16  C    0.072480
    17  C    0.143703
    18  C   -0.109517
    19  C    0.166249
    20  C    0.005709
    21  C    0.111095
    22  C   -0.243257
    23  C    0.051709
    24  S    0.987060
    25  S    0.995617
    26  O   -0.409561
    27  O   -0.324367
    28  O   -0.437122
    29  O   -0.516641
    30  O   -0.525422
    31  O   -0.520219
    32  H   -0.005313
    33  H   -0.013848
    34  H    0.005130
    35  H    0.081482
    36  H    0.082744
    37  H    0.055607
    38  H    0.059007
    39  H    0.059566
    40  H   -0.030813
    41  H   -0.029657
    42  H   -0.008026
    43  H    0.062824
    44  H    0.066007
    45  H    0.059996
    46  H    0.081371
    47  H    0.078023
    48  H   -0.022364
    49  H   -0.006788
    50  H   -0.026049
    51  H    0.191380
 Sum of Mulliken atomic charges =   0.00000

 Dipole moment (field-independent basis, Debye):
    X=             22.4677    Y=             18.8209    Z=              1.6777  Tot=             29.3571
 Quadrupole moment (field-independent basis, Debye-Ang):
   XX=           -387.4591   YY=           -180.0300   ZZ=           -202.3563
   XY=            -67.1101   XZ=             11.4383   YZ=             -8.1263

 Normal termination of Gaussian 09 at Sat Mar 21 23:38:39 2015.
