 Gaussian 09, Revision B.01,
 Gaussian 09:  EM64L-G09RevB.01 12-Aug-2010

 ------------------------------------------------------
 # opt=modredundant B3LYP/cc-pVDZ Geom=PrintInputOrient
 ------------------------------------------------------

 -------------------------------
 CY3 Dihedral Scan at MP2/6-31G*
 -------------------------------
 Symbolic Z-matrix:
 Charge =  0 Multiplicity = 1

 SCF Done:  E(RB3LYP) =  -2169.39489223     A.U. after   31 cycles
 SCF Done:  E(RB3LYP) =  -2169.39489903     A.U. after    8 cycles
 SCF Done:  E(RB3LYP) =  -2169.39489944     A.U. after    8 cycles
 Optimization completed.
    -- Stationary point found.
 SCF Done:  E(RB3LYP) =  -2169.39324167     A.U. after   14 cycles
 SCF Done:  E(RB3LYP) =  -2169.39328363     A.U. after    9 cycles
 SCF Done:  E(RB3LYP) =  -2169.39371913     A.U. after   16 cycles
 SCF Done:  E(RB3LYP) =  -2169.39374476     A.U. after   12 cycles
 SCF Done:  E(RB3LYP) =  -2169.39375022     A.U. after   10 cycles
 SCF Done:  E(RB3LYP) =  -2169.39375134     A.U. after    8 cycles
 SCF Done:  E(RB3LYP) =  -2169.39375166     A.U. after    7 cycles
 Optimization completed.
    -- Stationary point found.
 SCF Done:  E(RB3LYP) =  -2169.39017404     A.U. after   12 cycles
 SCF Done:  E(RB3LYP) =  -2169.39017467     A.U. after    8 cycles
 SCF Done:  E(RB3LYP) =  -2169.39017511     A.U. after    8 cycles
 SCF Done:  E(RB3LYP) =  -2169.39017636     A.U. after   23 cycles
 SCF Done:  E(RB3LYP) =  -2169.39017748     A.U. after   10 cycles
 SCF Done:  E(RB3LYP) =  -2169.39017798     A.U. after    9 cycles
 SCF Done:  E(RB3LYP) =  -2169.39017813     A.U. after    8 cycles
 SCF Done:  E(RB3LYP) =  -2169.39017827     A.U. after    8 cycles
 SCF Done:  E(RB3LYP) =  -2169.39017832     A.U. after    8 cycles
 SCF Done:  E(RB3LYP) =  -2169.39017832     A.U. after    7 cycles
 Optimization completed.
    -- Stationary point found.

                         Standard orientation:
 ---------------------------------------------------------------------
 Center     Atomic      Atomic             Coordinates (Angstroms)
 Number     Number       Type             X           Y           Z
 ---------------------------------------------------------------------
      1          6           0        6.062531    1.628387    0.224390
      2          6           0        4.685634    1.416087    0.138234
      3          6           0        4.141042    0.131262   -0.048896
      4          6           0        4.969984   -0.972583   -0.149534
      5          6           0        6.354179   -0.759417   -0.048953
      6          6           0        6.901617    0.513105    0.123003
      7          6           0        2.639327    0.257083   -0.117003
      8          6           0        2.414565    1.749451    0.054930
      9          7           0        3.640185    2.353916    0.199780
     10          6           0        3.810544    3.784114    0.387212
     11          6           0        1.210421    2.422157    0.067886
     12          6           0       -1.264412    2.418103   -0.057101
     13          6           0       -0.040868    1.778120   -0.086088
     14          6           0       -4.012827    3.712523   -0.462639
     15          7           0       -3.705635    2.330878   -0.098855
     16          6           0       -2.498303    1.740897   -0.191254
     17          6           0       -2.696641    0.238582   -0.175712
     18          6           0       -4.191015    0.086151   -0.054928
     19          6           0       -4.751299    1.372866   -0.025904
     20          6           0       -6.127103    1.595891    0.065434
     21          6           0       -6.944259    0.465070    0.130478
     22          6           0       -6.398715   -0.828472    0.087777
     23          6           0       -5.011028   -1.028588    0.003814
     24         16           0       -7.511293   -2.295419    0.091262
     25         16           0        7.454742   -2.165066   -0.194378
     26          8           0        8.804619   -1.678180   -0.520217
     27          8           0        7.451794   -2.672890    1.392461
     28          8           0        6.797536   -3.236188   -0.974509
     29          8           0       -7.751430   -2.473040   -1.379759
     30          8           0       -6.666426   -3.357758    0.729201
     31          8           0       -8.695539   -1.831247    0.882153
     32          1           0        6.492234    2.621392    0.356678
     33          1           0        4.580192   -1.978008   -0.313946
     34          1           0        7.984841    0.627786    0.167055
     35          1           0        2.133925   -0.314842    0.678485
     36          1           0        2.232359   -0.099005   -1.077675
     37          1           0        4.875118    4.018523    0.491588
     38          1           0        3.410935    4.338820   -0.477038
     39          1           0        3.286810    4.119221    1.296774
     40          1           0        1.212142    3.505644    0.203462
     41          1           0       -1.278955    3.502677    0.075432
     42          1           0       -0.035157    0.693296   -0.230539
     43          1           0       -4.614411    3.708188   -1.383614
     44          1           0       -4.592726    4.195933    0.337039
     45          1           0       -3.091119    4.278567   -0.631802
     46          1           0       -2.143678   -0.225586    0.655996
     47          1           0       -2.306394   -0.204275   -1.109209
     48          1           0       -6.552978    2.600313    0.100403
     49          1           0       -8.027397    0.554906    0.230083
     50          1           0       -4.633899   -2.053267    0.000898
     51          1           0        7.386432   -3.646382    1.347786
 ---------------------------------------------------------------------

 The electronic state is 1-A.
 Alpha  occ. eigenvalues --  -89.15056 -89.01652 -19.21192 -19.16786 -19.16667
 Alpha  occ. eigenvalues --  -19.02720 -19.02694 -19.02644 -14.45647 -14.45221
 Alpha  occ. eigenvalues --  -10.31131 -10.30993 -10.29769 -10.29326 -10.28500
 Alpha  occ. eigenvalues --  -10.27068 -10.26981 -10.26681 -10.26058 -10.25909
 Alpha  occ. eigenvalues --  -10.25731 -10.25583 -10.25063 -10.25057 -10.25043
 Alpha  occ. eigenvalues --  -10.24696 -10.21909 -10.21220 -10.19438 -10.19185
 Alpha  occ. eigenvalues --  -10.18750  -8.18215  -8.04489  -6.14638  -6.14484
 Alpha  occ. eigenvalues --   -6.14344  -6.00818  -6.00793  -6.00784  -1.15898
 Alpha  occ. eigenvalues --   -1.06052  -1.05377  -1.05355  -1.03196  -1.01551
 Alpha  occ. eigenvalues --   -0.92394  -0.88861  -0.88299  -0.88019  -0.87640
 Alpha  occ. eigenvalues --   -0.86876  -0.84760  -0.82721  -0.80975  -0.78230
 Alpha  occ. eigenvalues --   -0.77145  -0.76535  -0.74859  -0.73547  -0.71638
 Alpha  occ. eigenvalues --   -0.68300  -0.66462  -0.65079  -0.63088  -0.62248
 Alpha  occ. eigenvalues --   -0.60856  -0.60026  -0.58736  -0.57317  -0.56690
 Alpha  occ. eigenvalues --   -0.54731  -0.54511  -0.54240  -0.54002  -0.53125
 Alpha  occ. eigenvalues --   -0.52077  -0.51480  -0.50981  -0.49857  -0.49163
 Alpha  occ. eigenvalues --   -0.48609  -0.48337  -0.48312  -0.47514  -0.47172
 Alpha  occ. eigenvalues --   -0.46577  -0.46086  -0.45554  -0.45301  -0.44552
 Alpha  occ. eigenvalues --   -0.43995  -0.43573  -0.43381  -0.42063  -0.41504
 Alpha  occ. eigenvalues --   -0.40983  -0.40729  -0.40189  -0.39136  -0.38444
 Alpha  occ. eigenvalues --   -0.38182  -0.36690  -0.36240  -0.36211  -0.35314
 Alpha  occ. eigenvalues --   -0.34608  -0.34268  -0.34177  -0.32241  -0.31487
 Alpha  occ. eigenvalues --   -0.31200  -0.27322  -0.26554  -0.24231  -0.23596
 Alpha  occ. eigenvalues --   -0.23476  -0.20785  -0.20541  -0.19572  -0.16428
 Alpha virt. eigenvalues --   -0.13971  -0.07507  -0.07342  -0.03984  -0.01867
 Alpha virt. eigenvalues --   -0.00405  -0.00125   0.00536   0.01079   0.01691
 Alpha virt. eigenvalues --    0.02280   0.03215   0.03861   0.04486   0.05079

 Mulliken atomic charges:
              1
     1  C   -0.003019
     2  C    0.246193
     3  C   -0.139634
     4  C    0.051463
     5  C   -0.250403
     6  C    0.111775
     7  C    0.158342
     8  C    0.066974
     9  N   -0.299730
    10  C    0.075911
    11  C   -0.060391
    12  C   -0.025677
    13  C    0.062754
    14  C    0.071737
    15  N   -0.245782
    16  C    0.040253
    17  C    0.151295
    18  C   -0.110644
    19  C    0.207993
    20  C   -0.006310
    21  C    0.108488
    22  C   -0.242224
    23  C    0.042621
    24  S    0.985944
    25  S    0.995905
    26  O   -0.409631
    27  O   -0.324218
    28  O   -0.437801
    29  O   -0.517740
    30  O   -0.525409
    31  O   -0.520230
    32  H   -0.005459
    33  H   -0.014199
    34  H    0.004909
    35  H    0.081231
    36  H    0.082217
    37  H    0.055365
    38  H    0.058567
    39  H    0.059489
    40  H   -0.031074
    41  H   -0.020263
    42  H   -0.007751
    43  H    0.074575
    44  H    0.067453
    45  H    0.051125
    46  H    0.078268
    47  H    0.081301
    48  H   -0.032390
    49  H   -0.006883
    50  H   -0.026660
    51  H    0.191373
 Sum of Mulliken atomic charges =   0.00000

 Dipole moment (field-independent basis, Debye):
    X=             21.9922    Y=             18.7612    Z=              0.9170  Tot=             28.9219
 Quadrupole moment (field-independent basis, Debye-Ang):
   XX=           -387.6152   YY=           -179.1006   ZZ=           -202.7136
   XY=            -68.7181   XZ=             18.0463   YZ=             -5.6904

 Normal termination of Gaussian 09 at Wed Mar 18 10:06:00 2015.
