 Gaussian 09, Revision B.01,
 Gaussian 09:  EM64L-G09RevB.01 12-Aug-2010

 ------------------------------------------------------
 # opt=modredundant B3LYP/cc-pVDZ Geom=PrintInputOrient
 ------------------------------------------------------

 -------------------------------
 CY3 Dihedral Scan at MP2/6-31G*
 -------------------------------
 Symbolic Z-matrix:
 Charge =  0 Multiplicity = 1

 SCF Done:  E(RB3LYP) =  -2169.39489223     A.U. after   31 cycles
 SCF Done:  E(RB3LYP) =  -2169.39489905     A.U. after    8 cycles
 SCF Done:  E(RB3LYP) =  -2169.39489944     A.U. after    8 cycles
 Optimization completed.
    -- Stationary point found.
 SCF Done:  E(RB3LYP) =  -2169.39266064     A.U. after   13 cycles
 SCF Done:  E(RB3LYP) =  -2169.39270578     A.U. after   10 cycles
 SCF Done:  E(RB3LYP) =  -2169.39362034     A.U. after   12 cycles
 SCF Done:  E(RB3LYP) =  -2169.39365210     A.U. after   11 cycles
 SCF Done:  E(RB3LYP) =  -2169.39365513     A.U. after    8 cycles
 SCF Done:  E(RB3LYP) =  -2169.39365613     A.U. after   10 cycles
 SCF Done:  E(RB3LYP) =  -2169.39365634     A.U. after    7 cycles
 SCF Done:  E(RB3LYP) =  -2169.39365780     A.U. after    9 cycles
 SCF Done:  E(RB3LYP) =  -2169.39365782     A.U. after    7 cycles
 Optimization completed.
    -- Stationary point found.
 SCF Done:  E(RB3LYP) =  -2169.38769649     A.U. after   13 cycles
 SCF Done:  E(RB3LYP) =  -2169.38992524     A.U. after   12 cycles
 SCF Done:  E(RB3LYP) =  -2169.38998892     A.U. after   12 cycles
 SCF Done:  E(RB3LYP) =  -2169.38999902     A.U. after   10 cycles
 SCF Done:  E(RB3LYP) =  -2169.38999983     A.U. after    8 cycles
 SCF Done:  E(RB3LYP) =  -2169.38999994     A.U. after    7 cycles
 SCF Done:  E(RB3LYP) =  -2169.38999999     A.U. after    7 cycles
 SCF Done:  E(RB3LYP) =  -2169.38999996     A.U. after    5 cycles
 Optimization completed.
    -- Stationary point found.

                         Standard orientation:
 ---------------------------------------------------------------------
 Center     Atomic      Atomic             Coordinates (Angstroms)
 Number     Number       Type             X           Y           Z
 ---------------------------------------------------------------------
      1          6           0        6.063997    1.641765   -0.074512
      2          6           0        4.686776    1.420570   -0.028048
      3          6           0        4.141015    0.124222   -0.021984
      4          6           0        4.969888   -0.984732   -0.058002
      5          6           0        6.355208   -0.760401   -0.090324
      6          6           0        6.904025    0.523195   -0.108851
      7          6           0        2.638128    0.243315    0.033352
      8          6           0        2.418257    1.744246   -0.043915
      9          7           0        3.647760    2.375082   -0.010158
     10          6           0        3.831789    3.709316    0.555488
     11          6           0        1.217626    2.416915   -0.059089
     12          6           0       -1.259822    2.419555   -0.078419
     13          6           0       -0.043616    1.769231   -0.046935
     14          6           0       -3.994863    3.748201   -0.184844
     15          7           0       -3.708576    2.321418   -0.105494
     16          6           0       -2.500632    1.739043   -0.063128
     17          6           0       -2.700112    0.238886    0.010637
     18          6           0       -4.199176    0.085116    0.006818
     19          6           0       -4.759812    1.370500   -0.062261
     20          6           0       -6.138186    1.596169   -0.066718
     21          6           0       -6.958506    0.467403   -0.008256
     22          6           0       -6.412452   -0.825722    0.044776
     23          6           0       -5.022293   -1.026789    0.068178
     24         16           0       -7.525243   -2.292885    0.046887
     25         16           0        7.454764   -2.172962   -0.157861
     26          8           0        8.773560   -1.725978   -0.634274
     27          8           0        7.568071   -2.495345    1.473492
     28          8           0        6.754017   -3.327010   -0.761633
     29          8           0       -7.679111   -2.537343   -1.425603
     30          8           0       -6.720726   -3.323155    0.782119
     31          8           0       -8.752614   -1.793715    0.745415
     32          1           0        6.487709    2.645936   -0.107797
     33          1           0        4.578432   -2.002823   -0.067660
     34          1           0        7.986340    0.640945   -0.165391
     35          1           0        2.227032   -0.152770    0.977941
     36          1           0        2.137824   -0.294980   -0.787019
     37          1           0        4.871144    3.820987    0.885472
     38          1           0        3.614356    4.499047   -0.181368
     39          1           0        3.165154    3.840858    1.422165
     40          1           0        1.230336    3.508760   -0.100392
     41          1           0       -1.258292    3.510829   -0.113844
     42          1           0       -0.047137    0.675481   -0.011823
     43          1           0       -4.642381    3.937280   -1.053272
     44          1           0       -4.523297    4.068906    0.725551
     45          1           0       -3.072120    4.325253   -0.293006
     46          1           0       -2.231773   -0.168757    0.921934
     47          1           0       -2.218665   -0.257842   -0.848348
     48          1           0       -6.564795    2.600157   -0.103237
     49          1           0       -8.045761    0.559535    0.014659
     50          1           0       -4.647573   -2.049239    0.147928
     51          1           0        7.537852   -3.469165    1.542771
 ---------------------------------------------------------------------

 The electronic state is 1-A.
 Alpha  occ. eigenvalues --  -89.14966 -89.01771 -19.21126 -19.16702 -19.16589
 Alpha  occ. eigenvalues --  -19.02839 -19.02815 -19.02748 -14.46169 -14.44503
 Alpha  occ. eigenvalues --  -10.31214 -10.30889 -10.29354 -10.28955 -10.28747
 Alpha  occ. eigenvalues --  -10.27044 -10.26935 -10.26597 -10.25889 -10.25784
 Alpha  occ. eigenvalues --  -10.25585 -10.25375 -10.25340 -10.25253 -10.25201
 Alpha  occ. eigenvalues --  -10.24670 -10.22111 -10.21437 -10.19600 -10.19363
 Alpha  occ. eigenvalues --  -10.18925  -8.18128  -8.04607  -6.14552  -6.14397
 Alpha  occ. eigenvalues --   -6.14257  -6.00937  -6.00910  -6.00902  -1.15808
 Alpha  occ. eigenvalues --   -1.05836  -1.05406  -1.05278  -1.03107  -1.01673
 Alpha  occ. eigenvalues --   -0.92165  -0.88844  -0.88417  -0.88144  -0.87918
 Alpha  occ. eigenvalues --   -0.86722  -0.84735  -0.82638  -0.80945  -0.78131
 Alpha  occ. eigenvalues --   -0.77295  -0.76359  -0.75013  -0.73638  -0.71540
 Alpha  occ. eigenvalues --   -0.68318  -0.66299  -0.64984  -0.63104  -0.62458
 Alpha  occ. eigenvalues --   -0.60765  -0.60138  -0.58427  -0.57066  -0.56812
 Alpha  occ. eigenvalues --   -0.54932  -0.54474  -0.53997  -0.53875  -0.53478
 Alpha  occ. eigenvalues --   -0.52200  -0.51255  -0.50723  -0.49502  -0.49091
 Alpha  occ. eigenvalues --   -0.48688  -0.48597  -0.48214  -0.47511  -0.47121
 Alpha  occ. eigenvalues --   -0.46821  -0.46165  -0.45455  -0.45399  -0.44418
 Alpha  occ. eigenvalues --   -0.44145  -0.43458  -0.43184  -0.42203  -0.41509
 Alpha  occ. eigenvalues --   -0.40976  -0.40697  -0.40109  -0.39110  -0.38378
 Alpha  occ. eigenvalues --   -0.38303  -0.36740  -0.36364  -0.36189  -0.35402
 Alpha  occ. eigenvalues --   -0.34773  -0.34185  -0.34122  -0.32129  -0.31340
 Alpha  occ. eigenvalues --   -0.31139  -0.27421  -0.26736  -0.24386  -0.23708
 Alpha  occ. eigenvalues --   -0.23605  -0.20907  -0.20662  -0.19710  -0.16540
 Alpha virt. eigenvalues --   -0.13897  -0.07482  -0.07235  -0.04152  -0.02025
 Alpha virt. eigenvalues --   -0.00314   0.00144   0.00456   0.01056   0.01532
 Alpha virt. eigenvalues --    0.02304   0.03393   0.03971   0.04385   0.04955

 Mulliken atomic charges:
              1
     1  C   -0.001139
     2  C    0.233573
     3  C   -0.127206
     4  C    0.048556
     5  C   -0.249681
     6  C    0.110602
     7  C    0.155555
     8  C    0.057042
     9  N   -0.294535
    10  C    0.068433
    11  C   -0.051232
    12  C   -0.036943
    13  C    0.063052
    14  C    0.072587
    15  N   -0.250480
    16  C    0.058800
    17  C    0.149907
    18  C   -0.112282
    19  C    0.214292
    20  C   -0.008055
    21  C    0.108895
    22  C   -0.242598
    23  C    0.042376
    24  S    0.986405
    25  S    0.995213
    26  O   -0.409908
    27  O   -0.325108
    28  O   -0.437115
    29  O   -0.516719
    30  O   -0.524968
    31  O   -0.519894
    32  H   -0.006726
    33  H   -0.014437
    34  H    0.005307
    35  H    0.082231
    36  H    0.076820
    37  H    0.056004
    38  H    0.056712
    39  H    0.053308
    40  H   -0.028533
    41  H   -0.022258
    42  H   -0.007797
    43  H    0.073828
    44  H    0.071708
    45  H    0.054989
    46  H    0.081393
    47  H    0.082907
    48  H   -0.031681
    49  H   -0.006251
    50  H   -0.025919
    51  H    0.190974
 Sum of Mulliken atomic charges =   0.00000

 Dipole moment (field-independent basis, Debye):
    X=             21.4741    Y=             18.7964    Z=              2.0092  Tot=             28.6091
 Quadrupole moment (field-independent basis, Debye-Ang):
   XX=           -385.7174   YY=           -181.1088   ZZ=           -202.0199
   XY=            -69.9831   XZ=             16.7502   YZ=             -6.0897

 Normal termination of Gaussian 09 at Fri Mar 20 22:07:05 2015.
