 Gaussian 09, Revision B.01,
 Gaussian 09:  EM64L-G09RevB.01 12-Aug-2010

 ------------------------------------------------------
 # opt=modredundant B3LYP/cc-pVDZ Geom=PrintInputOrient
 ------------------------------------------------------

 -------------------------------
 CY3 Dihedral Scan at MP2/6-31G*
 -------------------------------
 Symbolic Z-matrix:
 Charge =  0 Multiplicity = 1

 SCF Done:  E(RB3LYP) =  -2169.39489223     A.U. after   31 cycles
 SCF Done:  E(RB3LYP) =  -2169.39489899     A.U. after    8 cycles
 SCF Done:  E(RB3LYP) =  -2169.39489941     A.U. after    8 cycles
 Optimization completed.
    -- Stationary point found.
 SCF Done:  E(RB3LYP) =  -2169.39065096     A.U. after   14 cycles
 SCF Done:  E(RB3LYP) =  -2169.39066517     A.U. after   10 cycles
 SCF Done:  E(RB3LYP) =  -2169.39236545     A.U. after   16 cycles
 SCF Done:  E(RB3LYP) =  -2169.39285367     A.U. after   12 cycles
 SCF Done:  E(RB3LYP) =  -2169.39296161     A.U. after   11 cycles
 SCF Done:  E(RB3LYP) =  -2169.39302922     A.U. after   11 cycles
 SCF Done:  E(RB3LYP) =  -2169.39309003     A.U. after   11 cycles
 Optimization completed.
    -- Stationary point found.
 SCF Done:  E(RB3LYP) =  -2169.38318868     A.U. after   14 cycles
 SCF Done:  E(RB3LYP) =  -2169.38628994     A.U. after   25 cycles
 SCF Done:  E(RB3LYP) =  -2169.38664297     A.U. after   16 cycles
 SCF Done:  E(RB3LYP) =  -2169.38665762     A.U. after   12 cycles
 SCF Done:  E(RB3LYP) =  -2169.38666101     A.U. after   10 cycles
 SCF Done:  E(RB3LYP) =  -2169.38666212     A.U. after    8 cycles
 SCF Done:  E(RB3LYP) =  -2169.38666266     A.U. after   10 cycles
 SCF Done:  E(RB3LYP) =  -2169.38666285     A.U. after    8 cycles
 SCF Done:  E(RB3LYP) =  -2169.38666294     A.U. after    8 cycles
 SCF Done:  E(RB3LYP) =  -2169.38666292     A.U. after    7 cycles
 Optimization completed.
    -- Stationary point found.

                         Standard orientation:
 ---------------------------------------------------------------------
 Center     Atomic      Atomic             Coordinates (Angstroms)
 Number     Number       Type             X           Y           Z
 ---------------------------------------------------------------------
      1          6           0       -6.015023    1.622086    0.095130
      2          6           0       -4.683464    1.425107   -0.260086
      3          6           0       -4.130865    0.137310   -0.430745
      4          6           0       -4.914407   -0.986267   -0.245973
      5          6           0       -6.260139   -0.787583    0.112885
      6          6           0       -6.807089    0.482077    0.294001
      7          6           0       -2.667868    0.306587   -0.798790
      8          6           0       -2.446879    1.767641   -0.445374
      9          7           0       -3.685839    2.378432   -0.562987
     10          6           0       -3.895722    3.803451   -0.370011
     11          6           0       -1.267164    2.416736   -0.181353
     12          6           0        1.193238    2.400784    0.106764
     13          6           0       -0.002102    1.769465   -0.158369
     14          6           0        3.888575    3.689106    0.683660
     15          7           0        3.628239    2.290137    0.367137
     16          6           0        2.438413    1.724581    0.117853
     17          6           0        2.661452    0.252047   -0.157268
     18          6           0        4.154610    0.095452   -0.031032
     19          6           0        4.690416    1.354013    0.284933
     20          6           0        6.059701    1.572979    0.456081
     21          6           0        6.895150    0.464750    0.305075
     22          6           0        6.372308   -0.804460    0.004205
     23          6           0        4.993328   -0.996641   -0.180561
     24         16           0        7.501626   -2.253400   -0.122361
     25         16           0       -7.293799   -2.221503    0.400423
     26          8           0       -8.486011   -1.805178    1.156690
     27          8           0       -7.751612   -2.534670   -1.171448
     28          8           0       -6.459230   -3.366491    0.825065
     29          8           0        7.596097   -2.671173    1.315646
     30          8           0        6.744539   -3.193803   -1.011950
     31          8           0        8.750823   -1.662401   -0.700175
     32          1           0       -6.437691    2.616730    0.238046
     33          1           0       -4.517640   -1.997050   -0.349775
     34          1           0       -7.848718    0.575090    0.602026
     35          1           0       -2.507191    0.163427   -1.882490
     36          1           0       -2.001070   -0.382030   -0.263120
     37          1           0       -4.892682    4.071766   -0.743638
     38          1           0       -3.818770    4.098338    0.691879
     39          1           0       -3.152474    4.363303   -0.953527
     40          1           0       -1.292384    3.487499    0.033670
     41          1           0        1.175581    3.473590    0.308897
     42          1           0        0.017202    0.696078   -0.368286
     43          1           0        4.449753    3.745364    1.627538
     44          1           0        4.495943    4.139784   -0.115575
     45          1           0        2.953015    4.245649    0.788778
     46          1           0        2.286994   -0.015598   -1.159301
     47          1           0        2.105554   -0.363907    0.569433
     48          1           0        6.469248    2.558460    0.685013
     49          1           0        7.978330    0.558851    0.399278
     50          1           0        4.641929   -1.995092   -0.448704
     51          1           0       -7.722623   -3.507381   -1.254966
 ---------------------------------------------------------------------

 The electronic state is 1-A.
 Alpha  occ. eigenvalues --  -89.14793 -89.01877 -19.20967 -19.16521 -19.16426
 Alpha  occ. eigenvalues --  -19.02951 -19.02913 -19.02863 -14.46426 -14.44265
 Alpha  occ. eigenvalues --  -10.31405 -10.30868 -10.29198 -10.28909 -10.28705
 Alpha  occ. eigenvalues --  -10.27210 -10.26764 -10.26386 -10.25721 -10.25589
 Alpha  occ. eigenvalues --  -10.25495 -10.25421 -10.25415 -10.25385 -10.25203
 Alpha  occ. eigenvalues --  -10.24920 -10.22268 -10.21580 -10.19693 -10.19532
 Alpha  occ. eigenvalues --  -10.19068  -8.17956  -8.04713  -6.14380  -6.14225
 Alpha  occ. eigenvalues --   -6.14083  -6.01044  -6.01016  -6.01008  -1.15637
 Alpha  occ. eigenvalues --   -1.06057  -1.05389  -1.05117  -1.02927  -1.01782
 Alpha  occ. eigenvalues --   -0.91923  -0.88935  -0.88522  -0.88257  -0.88071
 Alpha  occ. eigenvalues --   -0.86715  -0.84755  -0.82542  -0.80903  -0.78178
 Alpha  occ. eigenvalues --   -0.77412  -0.76186  -0.75048  -0.73681  -0.71411
 Alpha  occ. eigenvalues --   -0.68382  -0.66095  -0.64843  -0.63042  -0.62541
 Alpha  occ. eigenvalues --   -0.60775  -0.60296  -0.58324  -0.57151  -0.56780
 Alpha  occ. eigenvalues --   -0.55101  -0.54589  -0.53984  -0.53675  -0.53514
 Alpha  occ. eigenvalues --   -0.52347  -0.51162  -0.50523  -0.49357  -0.49049
 Alpha  occ. eigenvalues --   -0.48763  -0.48599  -0.48238  -0.47303  -0.46960
 Alpha  occ. eigenvalues --   -0.46873  -0.46245  -0.45541  -0.45197  -0.44397
 Alpha  occ. eigenvalues --   -0.44166  -0.43404  -0.42847  -0.42318  -0.41576
 Alpha  occ. eigenvalues --   -0.41131  -0.40602  -0.40083  -0.39116  -0.38484
 Alpha  occ. eigenvalues --   -0.38247  -0.36792  -0.36482  -0.36049  -0.35462
 Alpha  occ. eigenvalues --   -0.34888  -0.34055  -0.33988  -0.31939  -0.31204
 Alpha  occ. eigenvalues --   -0.30895  -0.27470  -0.26865  -0.24644  -0.23812
 Alpha  occ. eigenvalues --   -0.23715  -0.21032  -0.20748  -0.19833  -0.16643
 Alpha virt. eigenvalues --   -0.13956  -0.07380  -0.06937  -0.04211  -0.02126
 Alpha virt. eigenvalues --   -0.00457  -0.00004   0.00511   0.01195   0.01456
 Alpha virt. eigenvalues --    0.02088   0.03356   0.04041   0.04647   0.05371

 Mulliken atomic charges:
              1
     1  C   -0.000454
     2  C    0.237146
     3  C   -0.126700
     4  C    0.050231
     5  C   -0.249849
     6  C    0.104892
     7  C    0.160842
     8  C    0.050592
     9  N   -0.293563
    10  C    0.074512
    11  C   -0.043127
    12  C   -0.036127
    13  C    0.063687
    14  C    0.072263
    15  N   -0.249443
    16  C    0.058748
    17  C    0.149716
    18  C   -0.110461
    19  C    0.213696
    20  C   -0.008207
    21  C    0.112284
    22  C   -0.242743
    23  C    0.039493
    24  S    0.986695
    25  S    0.994508
    26  O   -0.410840
    27  O   -0.325043
    28  O   -0.438061
    29  O   -0.515700
    30  O   -0.524151
    31  O   -0.519503
    32  H   -0.013555
    33  H   -0.013587
    34  H    0.005560
    35  H    0.080938
    36  H    0.061557
    37  H    0.058763
    38  H    0.048721
    39  H    0.056124
    40  H   -0.028361
    41  H   -0.021075
    42  H   -0.008699
    43  H    0.074556
    44  H    0.072636
    45  H    0.055514
    46  H    0.083019
    47  H    0.083936
    48  H   -0.031089
    49  H   -0.005833
    50  H   -0.024977
    51  H    0.190517
 Sum of Mulliken atomic charges =   0.00000

 Dipole moment (field-independent basis, Debye):
    X=            -21.3700    Y=             18.8948    Z=             -1.5110  Tot=             28.5652
 Quadrupole moment (field-independent basis, Debye-Ang):
   XX=           -379.7453   YY=           -180.4706   ZZ=           -201.7097
   XY=             68.4910   XZ=             24.3413   YZ=             10.9689

 Normal termination of Gaussian 09 at Sat Mar 21 04:35:02 2015.
