 Gaussian 09, Revision B.01,
 Gaussian 09:  EM64L-G09RevB.01 12-Aug-2010

 ------------------------------------------------------
 # opt=modredundant B3LYP/cc-pVDZ Geom=PrintInputOrient
 ------------------------------------------------------

 -------------------------------
 CY3 Dihedral Scan at MP2/6-31G*
 -------------------------------
 Symbolic Z-matrix:
 Charge =  0 Multiplicity = 1

 SCF Done:  E(RB3LYP) =  -2169.39489223     A.U. after   31 cycles
 SCF Done:  E(RB3LYP) =  -2169.39489903     A.U. after    8 cycles
 SCF Done:  E(RB3LYP) =  -2169.39489944     A.U. after    8 cycles
 Optimization completed.
    -- Stationary point found.
 SCF Done:  E(RB3LYP) =  -2169.39359001     A.U. after   18 cycles
 SCF Done:  E(RB3LYP) =  -2169.39331860     A.U. after   12 cycles
 SCF Done:  E(RB3LYP) =  -2169.39381882     A.U. after   13 cycles
 SCF Done:  E(RB3LYP) =  -2169.39384436     A.U. after   11 cycles
 SCF Done:  E(RB3LYP) =  -2169.39385107     A.U. after   10 cycles
 SCF Done:  E(RB3LYP) =  -2169.39386150     A.U. after   12 cycles
 SCF Done:  E(RB3LYP) =  -2169.39387065     A.U. after   12 cycles
 Optimization completed.
    -- Stationary point found.
 SCF Done:  E(RB3LYP) =  -2169.37066005     A.U. after   15 cycles
 SCF Done:  E(RB3LYP) =  -2169.37052053     A.U. after   11 cycles
 SCF Done:  E(RB3LYP) =  -2169.37296084     A.U. after   14 cycles
 SCF Done:  E(RB3LYP) =  -2169.37345763     A.U. after   13 cycles
 SCF Done:  E(RB3LYP) =  -2169.37358283     A.U. after   13 cycles
 SCF Done:  E(RB3LYP) =  -2169.37359510     A.U. after   11 cycles
 SCF Done:  E(RB3LYP) =  -2169.37359634     A.U. after    8 cycles
 SCF Done:  E(RB3LYP) =  -2169.37359667     A.U. after    8 cycles
 SCF Done:  E(RB3LYP) =  -2169.37359669     A.U. after    7 cycles
 SCF Done:  E(RB3LYP) =  -2169.37359670     A.U. after    6 cycles
 Optimization completed.
    -- Stationary point found.

                         Standard orientation:
 ---------------------------------------------------------------------
 Center     Atomic      Atomic             Coordinates (Angstroms)
 Number     Number       Type             X           Y           Z
 ---------------------------------------------------------------------
      1          6           0        6.109575    1.634343   -0.547205
      2          6           0        4.743079    1.397834   -0.379956
      3          6           0        4.244450    0.109497   -0.099684
      4          6           0        5.106534   -0.964868    0.024036
      5          6           0        6.481809   -0.721230   -0.129795
      6          6           0        6.982904    0.548296   -0.420951
      7          6           0        2.740425    0.192386    0.000859
      8          6           0        2.462162    1.669074   -0.241657
      9          7           0        3.675174    2.300581   -0.458146
     10          6           0        3.792170    3.719513   -0.730490
     11          6           0        1.250096    2.300967   -0.254910
     12          6           0       -1.221157    2.210601   -0.046502
     13          6           0        0.003711    1.621906   -0.034046
     14          6           0       -2.639679    1.510843    2.532517
     15          7           0       -3.113508    1.192396    1.186711
     16          6           0       -2.485243    1.472956    0.060338
     17          6           0       -3.334525    1.009478   -1.093481
     18          6           0       -4.538859    0.405472   -0.423714
     19          6           0       -4.356045    0.534807    0.963722
     20          6           0       -5.272487    0.061122    1.904847
     21          6           0       -6.417917   -0.554626    1.399181
     22          6           0       -6.626689   -0.678515    0.014222
     23          6           0       -5.679393   -0.214058   -0.911711
     24         16           0       -8.192027   -1.432001   -0.609178
     25         16           0        7.620585   -2.090894    0.012779
     26          8           0        8.910835   -1.709523   -0.586010
     27          8           0        7.793060   -2.108329    1.672564
     28          8           0        6.942379   -3.355802   -0.346128
     29          8           0       -9.077117   -0.224254   -0.678806
     30          8           0       -7.781180   -2.003255   -1.932661
     31          8           0       -8.537928   -2.423455    0.458547
     32          1           0        6.504076    2.624273   -0.776756
     33          1           0        4.748034   -1.975714    0.223066
     34          1           0        8.056548    0.680719   -0.556106
     35          1           0        2.369348   -0.128307    0.987833
     36          1           0        2.238737   -0.436032   -0.753140
     37          1           0        4.846549    3.986566   -0.860360
     38          1           0        3.247022    3.986334   -1.651030
     39          1           0        3.381678    4.311308    0.104410
     40          1           0        1.208553    3.374369   -0.450426
     41          1           0       -1.313375    3.273648   -0.304026
     42          1           0        0.048161    0.543751    0.159627
     43          1           0       -3.400302    2.120698    3.039701
     44          1           0       -2.498814    0.577522    3.095803
     45          1           0       -1.693420    2.057189    2.461599
     46          1           0       -2.759668    0.297837   -1.713008
     47          1           0       -3.565482    1.863967   -1.755313
     48          1           0       -5.108379    0.154167    2.980012
     49          1           0       -7.176269   -0.972398    2.063724
     50          1           0       -5.872913   -0.370118   -1.974921
     51          1           0        7.881400   -3.052142    1.907955
 ---------------------------------------------------------------------

 The electronic state is 1-A.
 Alpha  occ. eigenvalues --  -89.14432 -89.02243 -19.20636 -19.16153 -19.16065
 Alpha  occ. eigenvalues --  -19.03292 -19.03273 -19.03140 -14.48761 -14.43535
 Alpha  occ. eigenvalues --  -10.32898 -10.29719 -10.29593 -10.28870 -10.28284
 Alpha  occ. eigenvalues --  -10.26566 -10.26288 -10.26194 -10.26185 -10.25811
 Alpha  occ. eigenvalues --  -10.25217 -10.25139 -10.25078 -10.24949 -10.24600
 Alpha  occ. eigenvalues --  -10.23478 -10.23193 -10.22479 -10.20382 -10.20169
 Alpha  occ. eigenvalues --  -10.19709  -8.17596  -8.05074  -6.14021  -6.13864
 Alpha  occ. eigenvalues --   -6.13722  -6.01410  -6.01375  -6.01366  -1.15248
 Alpha  occ. eigenvalues --   -1.07951  -1.04762  -1.04631  -1.02534  -1.02156
 Alpha  occ. eigenvalues --   -0.91462  -0.89027  -0.88887  -0.88630  -0.88280
 Alpha  occ. eigenvalues --   -0.86475  -0.84858  -0.82475  -0.80539  -0.78543
 Alpha  occ. eigenvalues --   -0.77698  -0.76226  -0.75337  -0.73974  -0.71153
 Alpha  occ. eigenvalues --   -0.67919  -0.65717  -0.65325  -0.63514  -0.62809
 Alpha  occ. eigenvalues --   -0.60835  -0.60289  -0.57956  -0.57014  -0.56497
 Alpha  occ. eigenvalues --   -0.55531  -0.54921  -0.54351  -0.53803  -0.53098
 Alpha  occ. eigenvalues --   -0.51779  -0.50847  -0.50121  -0.49686  -0.49015
 Alpha  occ. eigenvalues --   -0.48888  -0.48308  -0.48026  -0.47788  -0.47066
 Alpha  occ. eigenvalues --   -0.46713  -0.46517  -0.45737  -0.45076  -0.44783
 Alpha  occ. eigenvalues --   -0.44204  -0.43704  -0.42942  -0.42676  -0.41712
 Alpha  occ. eigenvalues --   -0.41214  -0.39867  -0.39748  -0.39117  -0.38438
 Alpha  occ. eigenvalues --   -0.37891  -0.37067  -0.36724  -0.36045  -0.35698
 Alpha  occ. eigenvalues --   -0.35436  -0.33690  -0.33596  -0.31502  -0.30660
 Alpha  occ. eigenvalues --   -0.30257  -0.27681  -0.27263  -0.24180  -0.24140
 Alpha  occ. eigenvalues --   -0.24098  -0.21390  -0.21130  -0.20397  -0.16981
 Alpha virt. eigenvalues --   -0.11936  -0.09555  -0.06546  -0.05639  -0.03052
 Alpha virt. eigenvalues --   -0.01363   0.00534   0.00969   0.01289   0.01669
 Alpha virt. eigenvalues --    0.02381   0.03015   0.03798   0.04360   0.05789

 Mulliken atomic charges:
              1
     1  C   -0.006389
     2  C    0.249397
     3  C   -0.144185
     4  C    0.050613
     5  C   -0.252108
     6  C    0.109854
     7  C    0.158528
     8  C    0.065280
     9  N   -0.306372
    10  C    0.077994
    11  C   -0.076383
    12  C   -0.103477
    13  C    0.082780
    14  C    0.072569
    15  N   -0.183731
    16  C    0.043511
    17  C    0.164044
    18  C   -0.114264
    19  C    0.194954
    20  C   -0.000851
    21  C    0.111274
    22  C   -0.241915
    23  C    0.042454
    24  S    0.987602
    25  S    0.991950
    26  O   -0.413394
    27  O   -0.326684
    28  O   -0.439805
    29  O   -0.516843
    30  O   -0.522949
    31  O   -0.519397
    32  H   -0.009231
    33  H   -0.019245
    34  H    0.001699
    35  H    0.070088
    36  H    0.076744
    37  H    0.051377
    38  H    0.054106
    39  H    0.051804
    40  H   -0.033504
    41  H    0.011724
    42  H   -0.016946
    43  H    0.076943
    44  H    0.074434
    45  H    0.064621
    46  H    0.085772
    47  H    0.087189
    48  H   -0.027660
    49  H   -0.002805
    50  H   -0.019566
    51  H    0.188395
 Sum of Mulliken atomic charges =   0.00000

 Dipole moment (field-independent basis, Debye):
    X=             22.3744    Y=             13.0660    Z=              5.9206  Tot=             26.5779
 Quadrupole moment (field-independent basis, Debye-Ang):
   XX=           -441.8775   YY=           -187.5438   ZZ=           -184.1823
   XY=            -29.7866   XZ=            -21.4616   YZ=            -12.7354

 Normal termination of Gaussian 09 at Wed Mar 18 18:36:09 2015.
