 Gaussian 09, Revision B.01,
 Gaussian 09:  EM64L-G09RevB.01 12-Aug-2010

 ------------------------------------------------------
 # opt=modredundant B3LYP/cc-pVDZ Geom=PrintInputOrient
 ------------------------------------------------------

 -------------------------------
 CY3 Dihedral Scan at MP2/6-31G*
 -------------------------------
 Symbolic Z-matrix:
 Charge =  0 Multiplicity = 1

 SCF Done:  E(RB3LYP) =  -2169.39489223     A.U. after   31 cycles
 SCF Done:  E(RB3LYP) =  -2169.39489903     A.U. after    8 cycles
 SCF Done:  E(RB3LYP) =  -2169.39489944     A.U. after    8 cycles
 Optimization completed.
    -- Stationary point found.
 SCF Done:  E(RB3LYP) =  -2169.39143851     A.U. after   13 cycles
 SCF Done:  E(RB3LYP) =  -2169.39144430     A.U. after    8 cycles
 SCF Done:  E(RB3LYP) =  -2169.39197224     A.U. after   12 cycles
 SCF Done:  E(RB3LYP) =  -2169.39201214     A.U. after   10 cycles
 SCF Done:  E(RB3LYP) =  -2169.39202039     A.U. after   10 cycles
 SCF Done:  E(RB3LYP) =  -2169.39202347     A.U. after    8 cycles
 SCF Done:  E(RB3LYP) =  -2169.39202745     A.U. after   10 cycles
 Optimization completed.
    -- Stationary point found.
 SCF Done:  E(RB3LYP) =  -2169.38305596     A.U. after   11 cycles
 SCF Done:  E(RB3LYP) =  -2169.38305903     A.U. after   10 cycles
 SCF Done:  E(RB3LYP) =  -2169.38305946     A.U. after    8 cycles
 SCF Done:  E(RB3LYP) =  -2169.38305962     A.U. after    7 cycles
 SCF Done:  E(RB3LYP) =  -2169.38305961     A.U. after    7 cycles
 SCF Done:  E(RB3LYP) =  -2169.38305975     A.U. after    8 cycles
 SCF Done:  E(RB3LYP) =  -2169.38305993     A.U. after    8 cycles
 SCF Done:  E(RB3LYP) =  -2169.38306013     A.U. after    8 cycles
 SCF Done:  E(RB3LYP) =  -2169.38306028     A.U. after    7 cycles
 SCF Done:  E(RB3LYP) =  -2169.38306032     A.U. after    7 cycles
 Optimization completed.
    -- Stationary point found.

                         Standard orientation:
 ---------------------------------------------------------------------
 Center     Atomic      Atomic             Coordinates (Angstroms)
 Number     Number       Type             X           Y           Z
 ---------------------------------------------------------------------
      1          6           0       -6.076498    1.636962   -0.070799
      2          6           0       -4.695505    1.440676    0.034582
      3          6           0       -4.148945    0.141375   -0.010302
      4          6           0       -4.970095   -0.932169    0.299165
      5          6           0       -6.334086   -0.776053   -0.007476
      6          6           0       -6.891381    0.498932   -0.156560
      7          6           0       -2.644349    0.269855    0.050766
      8          6           0       -2.426452    1.773930    0.062098
      9          7           0       -3.659321    2.383804    0.078744
     10          6           0       -3.850453    3.823517    0.092923
     11          6           0       -1.225497    2.450021    0.034250
     12          6           0        1.252475    2.444589   -0.003830
     13          6           0        0.032720    1.799205    0.028762
     14          6           0        3.996211    3.760020   -0.067552
     15          7           0        3.700648    2.333457   -0.041412
     16          6           0        2.488841    1.757457   -0.012390
     17          6           0        2.679321    0.254112    0.006838
     18          6           0        4.177260    0.091146   -0.017120
     19          6           0        4.745802    1.374410   -0.048540
     20          6           0        6.124795    1.590376   -0.093663
     21          6           0        6.937839    0.454510   -0.095686
     22          6           0        6.384243   -0.835260   -0.047346
     23          6           0        4.992895   -1.027911   -0.023634
     24         16           0        7.488585   -2.307088    0.027158
     25         16           0       -7.417898   -2.195953    0.086091
     26          8           0       -8.813472   -1.733414    0.156252
     27          8           0       -7.145064   -2.819714   -1.434261
     28          8           0       -6.872921   -3.181937    1.044703
     29          8           0        7.659194   -2.462069    1.509920
     30          8           0        6.668736   -3.375481   -0.633047
     31          8           0        8.710182   -1.860302   -0.715705
     32          1           0       -6.525070    2.629994   -0.104582
     33          1           0       -4.568822   -1.925902    0.508494
     34          1           0       -7.967693    0.598289   -0.298976
     35          1           0       -2.154580   -0.191321   -0.822445
     36          1           0       -2.217052   -0.207284    0.948165
     37          1           0       -4.905696    4.050832    0.280857
     38          1           0       -3.251263    4.276684    0.897166
     39          1           0       -3.553522    4.273064   -0.869284
     40          1           0       -1.233918    3.541764    0.010687
     41          1           0        1.256124    3.536202   -0.026408
     42          1           0        0.033067    0.705148    0.051110
     43          1           0        4.654760    4.007777    0.777689
     44          1           0        4.516059    4.010359   -1.004553
     45          1           0        3.078061    4.349604    0.007015
     46          1           0        2.186037   -0.209390   -0.863743
     47          1           0        2.217786   -0.182099    0.908434
     48          1           0        6.557384    2.591630   -0.135049
     49          1           0        8.024756    0.537030   -0.150304
     50          1           0        4.610750   -2.050713   -0.024804
     51          1           0       -7.125544   -3.788691   -1.312611
 ---------------------------------------------------------------------

 The electronic state is 1-A.
 Alpha  occ. eigenvalues --  -89.15003 -89.01676 -19.21144 -19.16699 -19.16595
 Alpha  occ. eigenvalues --  -19.02740 -19.02719 -19.02641 -14.46004 -14.45208
 Alpha  occ. eigenvalues --  -10.31103 -10.31096 -10.29743 -10.29300 -10.28651
 Alpha  occ. eigenvalues --  -10.26982 -10.26976 -10.26591 -10.26021 -10.25960
 Alpha  occ. eigenvalues --  -10.25604 -10.25413 -10.25223 -10.25156 -10.25063
 Alpha  occ. eigenvalues --  -10.24667 -10.21993 -10.21328 -10.19505 -10.19245
 Alpha  occ. eigenvalues --  -10.18805  -8.18158  -8.04511  -6.14580  -6.14426
 Alpha  occ. eigenvalues --   -6.14290  -6.00841  -6.00815  -6.00806  -1.15820
 Alpha  occ. eigenvalues --   -1.06043  -1.05691  -1.05302  -1.03088  -1.01573
 Alpha  occ. eigenvalues --   -0.92373  -0.88870  -0.88320  -0.88041  -0.87808
 Alpha  occ. eigenvalues --   -0.86826  -0.84781  -0.82689  -0.80923  -0.78247
 Alpha  occ. eigenvalues --   -0.77270  -0.76523  -0.74943  -0.73598  -0.71654
 Alpha  occ. eigenvalues --   -0.68334  -0.66283  -0.65136  -0.63036  -0.62363
 Alpha  occ. eigenvalues --   -0.60857  -0.60072  -0.58614  -0.57241  -0.56772
 Alpha  occ. eigenvalues --   -0.54837  -0.54610  -0.54157  -0.54000  -0.53364
 Alpha  occ. eigenvalues --   -0.52144  -0.51319  -0.50890  -0.49756  -0.49050
 Alpha  occ. eigenvalues --   -0.48668  -0.48515  -0.48168  -0.47431  -0.47082
 Alpha  occ. eigenvalues --   -0.46716  -0.46091  -0.45491  -0.45318  -0.44455
 Alpha  occ. eigenvalues --   -0.44064  -0.43544  -0.43362  -0.42108  -0.41422
 Alpha  occ. eigenvalues --   -0.41135  -0.40668  -0.40274  -0.39121  -0.38506
 Alpha  occ. eigenvalues --   -0.38244  -0.36696  -0.36266  -0.36206  -0.35426
 Alpha  occ. eigenvalues --   -0.34674  -0.34261  -0.34132  -0.32068  -0.31120
 Alpha  occ. eigenvalues --   -0.31019  -0.27304  -0.26628  -0.24232  -0.23613
 Alpha  occ. eigenvalues --   -0.23505  -0.20810  -0.20568  -0.19608  -0.16446
 Alpha virt. eigenvalues --   -0.13782  -0.07808  -0.07439  -0.03857  -0.01919
 Alpha virt. eigenvalues --   -0.00191  -0.00093   0.00488   0.01092   0.01450
 Alpha virt. eigenvalues --    0.02460   0.03312   0.03974   0.04377   0.04897

 Mulliken atomic charges:
              1
     1  C   -0.015858
     2  C    0.236297
     3  C   -0.147628
     4  C    0.078367
     5  C   -0.268255
     6  C    0.118260
     7  C    0.134670
     8  C    0.073532
     9  N   -0.286552
    10  C    0.075043
    11  C   -0.063527
    12  C   -0.038213
    13  C    0.062419
    14  C    0.072959
    15  N   -0.251600
    16  C    0.058794
    17  C    0.149596
    18  C   -0.112472
    19  C    0.214305
    20  C   -0.008281
    21  C    0.107894
    22  C   -0.242634
    23  C    0.042911
    24  S    0.986099
    25  S    0.994241
    26  O   -0.409592
    27  O   -0.321967
    28  O   -0.436482
    29  O   -0.517673
    30  O   -0.525552
    31  O   -0.520398
    32  H   -0.008340
    33  H    0.004837
    34  H    0.009871
    35  H    0.077362
    36  H    0.079045
    37  H    0.058000
    38  H    0.059905
    39  H    0.057260
    40  H   -0.031627
    41  H   -0.023297
    42  H   -0.008988
    43  H    0.073034
    44  H    0.071598
    45  H    0.054157
    46  H    0.081191
    47  H    0.081924
    48  H   -0.032205
    49  H   -0.006629
    50  H   -0.026516
    51  H    0.190717
 Sum of Mulliken atomic charges =   0.00000

 Dipole moment (field-independent basis, Debye):
    X=            -21.5358    Y=             18.9491    Z=             -1.4318  Tot=             28.7213
 Quadrupole moment (field-independent basis, Debye-Ang):
   XX=           -388.4400   YY=           -177.3132   ZZ=           -203.5258
   XY=             68.7702   XZ=              6.3845   YZ=              6.2404

 Normal termination of Gaussian 09 at Sat Mar 21 06:35:52 2015.
