 Gaussian 09, Revision B.01,
 Gaussian 09:  EM64L-G09RevB.01 12-Aug-2010

 ------------------------------------------------------
 # opt=modredundant B3LYP/cc-pVDZ Geom=PrintInputOrient
 ------------------------------------------------------

 -------------------------------
 CY3 Dihedral Scan at MP2/6-31G*
 -------------------------------
 Symbolic Z-matrix:
 Charge =  0 Multiplicity = 1

 SCF Done:  E(RB3LYP) =  -2169.39489223     A.U. after   31 cycles
 SCF Done:  E(RB3LYP) =  -2169.39489899     A.U. after    8 cycles
 SCF Done:  E(RB3LYP) =  -2169.39489941     A.U. after    8 cycles
 Optimization completed.
    -- Stationary point found.
 SCF Done:  E(RB3LYP) =  -2169.39067359     A.U. after   14 cycles
 SCF Done:  E(RB3LYP) =  -2169.39066873     A.U. after    8 cycles
 SCF Done:  E(RB3LYP) =  -2169.39238362     A.U. after   13 cycles
 SCF Done:  E(RB3LYP) =  -2169.39287455     A.U. after   13 cycles
 SCF Done:  E(RB3LYP) =  -2169.39300974     A.U. after   12 cycles
 SCF Done:  E(RB3LYP) =  -2169.39311748     A.U. after   11 cycles
 SCF Done:  E(RB3LYP) =  -2169.39323989     A.U. after   11 cycles
 Optimization completed.
    -- Stationary point found.
 SCF Done:  E(RB3LYP) =  -2169.38709714     A.U. after   10 cycles
 SCF Done:  E(RB3LYP) =  -2169.38709935     A.U. after   11 cycles
 SCF Done:  E(RB3LYP) =  -2169.38709966     A.U. after    8 cycles
 SCF Done:  E(RB3LYP) =  -2169.38709976     A.U. after    8 cycles
 SCF Done:  E(RB3LYP) =  -2169.38709976     A.U. after    7 cycles
 SCF Done:  E(RB3LYP) =  -2169.38709982     A.U. after    7 cycles
 SCF Done:  E(RB3LYP) =  -2169.38709996     A.U. after    8 cycles
 SCF Done:  E(RB3LYP) =  -2169.38710009     A.U. after    8 cycles
 SCF Done:  E(RB3LYP) =  -2169.38710022     A.U. after    8 cycles
 SCF Done:  E(RB3LYP) =  -2169.38710024     A.U. after    6 cycles
 Optimization completed.
    -- Stationary point found.

                         Standard orientation:
 ---------------------------------------------------------------------
 Center     Atomic      Atomic             Coordinates (Angstroms)
 Number     Number       Type             X           Y           Z
 ---------------------------------------------------------------------
      1          6           0        6.032929    1.616396    0.040061
      2          6           0        4.693273    1.430371   -0.290807
      3          6           0        4.137973    0.148534   -0.493794
      4          6           0        4.925298   -0.979981   -0.362108
      5          6           0        6.272503   -0.793387   -0.002957
      6          6           0        6.828337    0.471184    0.187618
      7          6           0        2.675009    0.330069   -0.854716
      8          6           0        2.455616    1.781101   -0.461474
      9          7           0        3.695085    2.393229   -0.557696
     10          6           0        3.907460    3.812575   -0.329849
     11          6           0        1.276235    2.424299   -0.180540
     12          6           0       -1.182911    2.403599    0.114665
     13          6           0        0.010535    1.778499   -0.173560
     14          6           0       -3.874672    3.683064    0.727411
     15          7           0       -3.615427    2.287762    0.394219
     16          6           0       -2.427834    1.727305    0.123159
     17          6           0       -2.652291    0.257938   -0.167494
     18          6           0       -4.142465    0.095427   -0.015729
     19          6           0       -4.675312    1.347814    0.327835
     20          6           0       -6.037249    1.552708    0.563890
     21          6           0       -6.870281    0.440508    0.431622
     22          6           0       -6.354115   -0.815797    0.070354
     23          6           0       -4.978518   -1.001859   -0.142350
     24         16           0       -7.497530   -2.239997   -0.164918
     25         16           0        7.320289   -2.233955    0.181457
     26          8           0        8.728238   -1.807828    0.131994
     27          8           0        6.946859   -2.631856    1.756390
     28          8           0        6.808420   -3.339064   -0.657942
     29          8           0       -7.950632   -2.013729   -1.577320
     30          8           0       -6.605060   -3.427962    0.037514
     31          8           0       -8.541884   -2.014087    0.884778
     32          1           0        6.463310    2.606976    0.188051
     33          1           0        4.536384   -1.985147   -0.530241
     34          1           0        7.884084    0.556789    0.445711
     35          1           0        2.007053   -0.371723   -0.337907
     36          1           0        2.513168    0.216427   -1.941774
     37          1           0        4.902652    4.089683   -0.701704
     38          1           0        3.161791    4.387707   -0.895089
     39          1           0        3.836369    4.080394    0.739561
     40          1           0        1.303035    3.488521    0.064663
     41          1           0       -1.162163    3.469715    0.349371
     42          1           0       -0.010814    0.711305   -0.412952
     43          1           0       -4.621530    4.086830    0.028615
     44          1           0       -4.276377    3.747835    1.749690
     45          1           0       -2.959095    4.277069    0.657604
     46          1           0       -2.081592   -0.366756    0.539793
     47          1           0       -2.295802    0.005607   -1.180144
     48          1           0       -6.440504    2.526382    0.847880
     49          1           0       -7.942377    0.514756    0.621366
     50          1           0       -4.625134   -2.005704   -0.386823
     51          1           0        6.881137   -3.606344    1.763312
 ---------------------------------------------------------------------

 The electronic state is 1-A.
 Alpha  occ. eigenvalues --  -89.14810 -89.01895 -19.20978 -19.16539 -19.16441
 Alpha  occ. eigenvalues --  -19.02973 -19.02926 -19.02879 -14.46430 -14.44318
 Alpha  occ. eigenvalues --  -10.31415 -10.30896 -10.29226 -10.28922 -10.28744
 Alpha  occ. eigenvalues --  -10.27225 -10.26786 -10.26406 -10.25748 -10.25608
 Alpha  occ. eigenvalues --  -10.25508 -10.25442 -10.25420 -10.25407 -10.25222
 Alpha  occ. eigenvalues --  -10.24931 -10.22288 -10.21591 -10.19696 -10.19562
 Alpha  occ. eigenvalues --  -10.19082  -8.17972  -8.04731  -6.14396  -6.14241
 Alpha  occ. eigenvalues --   -6.14100  -6.01061  -6.01034  -6.01025  -1.15654
 Alpha  occ. eigenvalues --   -1.06064  -1.05431  -1.05131  -1.02944  -1.01801
 Alpha  occ. eigenvalues --   -0.91950  -0.88951  -0.88542  -0.88274  -0.88086
 Alpha  occ. eigenvalues --   -0.86740  -0.84777  -0.82567  -0.80923  -0.78200
 Alpha  occ. eigenvalues --   -0.77428  -0.76217  -0.75066  -0.73701  -0.71435
 Alpha  occ. eigenvalues --   -0.68396  -0.66118  -0.64873  -0.63062  -0.62557
 Alpha  occ. eigenvalues --   -0.60800  -0.60313  -0.58351  -0.57172  -0.56796
 Alpha  occ. eigenvalues --   -0.55124  -0.54565  -0.54046  -0.53686  -0.53529
 Alpha  occ. eigenvalues --   -0.52363  -0.51215  -0.50549  -0.49357  -0.49056
 Alpha  occ. eigenvalues --   -0.48786  -0.48637  -0.48263  -0.47327  -0.46976
 Alpha  occ. eigenvalues --   -0.46894  -0.46255  -0.45553  -0.45222  -0.44394
 Alpha  occ. eigenvalues --   -0.44176  -0.43432  -0.42908  -0.42336  -0.41588
 Alpha  occ. eigenvalues --   -0.41164  -0.40630  -0.40080  -0.39061  -0.38513
 Alpha  occ. eigenvalues --   -0.38365  -0.36819  -0.36501  -0.36113  -0.35476
 Alpha  occ. eigenvalues --   -0.34904  -0.34014  -0.33929  -0.31987  -0.31225
 Alpha  occ. eigenvalues --   -0.30950  -0.27487  -0.26879  -0.24650  -0.23833
 Alpha  occ. eigenvalues --   -0.23728  -0.21066  -0.20749  -0.19849  -0.16661
 Alpha virt. eigenvalues --   -0.13967  -0.07391  -0.06966  -0.04225  -0.02140
 Alpha virt. eigenvalues --   -0.00492   0.00030   0.00489   0.01082   0.01391
 Alpha virt. eigenvalues --    0.02162   0.03504   0.03809   0.04604   0.05173

 Mulliken atomic charges:
              1
     1  C   -0.000615
     2  C    0.237559
     3  C   -0.126829
     4  C    0.049681
     5  C   -0.249289
     6  C    0.105264
     7  C    0.161319
     8  C    0.051227
     9  N   -0.293200
    10  C    0.074351
    11  C   -0.044178
    12  C   -0.036322
    13  C    0.063619
    14  C    0.072418
    15  N   -0.249602
    16  C    0.058628
    17  C    0.149874
    18  C   -0.109994
    19  C    0.213896
    20  C   -0.008687
    21  C    0.113806
    22  C   -0.242777
    23  C    0.037628
    24  S    0.986594
    25  S    0.994546
    26  O   -0.410791
    27  O   -0.325035
    28  O   -0.438245
    29  O   -0.516054
    30  O   -0.524058
    31  O   -0.519396
    32  H   -0.013356
    33  H   -0.013590
    34  H    0.005426
    35  H    0.060083
    36  H    0.082711
    37  H    0.059093
    38  H    0.056466
    39  H    0.048734
    40  H   -0.028415
    41  H   -0.021146
    42  H   -0.008926
    43  H    0.074250
    44  H    0.072868
    45  H    0.055240
    46  H    0.082936
    47  H    0.083591
    48  H   -0.031133
    49  H   -0.005887
    50  H   -0.025048
    51  H    0.190765
 Sum of Mulliken atomic charges =   0.00000

 Dipole moment (field-independent basis, Debye):
    X=             20.7310    Y=             18.7384    Z=              1.9832  Tot=             28.0150
 Quadrupole moment (field-independent basis, Debye-Ang):
   XX=           -391.6903   YY=           -179.5564   ZZ=           -199.7891
   XY=            -63.8672   XZ=             -5.5697   YZ=             -3.7217

 Normal termination of Gaussian 09 at Sat Mar 21 03:38:03 2015.
