 Gaussian 09, Revision B.01,
 Gaussian 09:  EM64L-G09RevB.01 12-Aug-2010

 ------------------------------------------------------
 # opt=modredundant B3LYP/cc-pVDZ Geom=PrintInputOrient
 ------------------------------------------------------

 -------------------------------
 CY3 Dihedral Scan at MP2/6-31G*
 -------------------------------
 Symbolic Z-matrix:
 Charge =  0 Multiplicity = 1

 SCF Done:  E(RB3LYP) =  -2169.39489223     A.U. after   31 cycles
 SCF Done:  E(RB3LYP) =  -2169.39489903     A.U. after    8 cycles
 SCF Done:  E(RB3LYP) =  -2169.39489944     A.U. after    8 cycles
 Optimization completed.
    -- Stationary point found.
 SCF Done:  E(RB3LYP) =  -2169.38809392     A.U. after   17 cycles
 SCF Done:  E(RB3LYP) =  -2169.39078944     A.U. after   12 cycles
 SCF Done:  E(RB3LYP) =  -2169.39168443     A.U. after   12 cycles
 SCF Done:  E(RB3LYP) =  -2169.39173773     A.U. after   11 cycles
 SCF Done:  E(RB3LYP) =  -2169.39174631     A.U. after   10 cycles
 SCF Done:  E(RB3LYP) =  -2169.39175259     A.U. after   10 cycles
 SCF Done:  E(RB3LYP) =  -2169.39176085     A.U. after   11 cycles
 Optimization completed.
    -- Stationary point found.
 SCF Done:  E(RB3LYP) =  -2169.38170749     A.U. after   12 cycles
 SCF Done:  E(RB3LYP) =  -2169.38170957     A.U. after   13 cycles
 SCF Done:  E(RB3LYP) =  -2169.38171006     A.U. after    8 cycles
 SCF Done:  E(RB3LYP) =  -2169.38171008     A.U. after   11 cycles
 SCF Done:  E(RB3LYP) =  -2169.38171032     A.U. after   10 cycles
 SCF Done:  E(RB3LYP) =  -2169.38171052     A.U. after   10 cycles
 SCF Done:  E(RB3LYP) =  -2169.38171066     A.U. after   10 cycles
 SCF Done:  E(RB3LYP) =  -2169.38171097     A.U. after   10 cycles
 SCF Done:  E(RB3LYP) =  -2169.38171089     A.U. after    7 cycles
 SCF Done:  E(RB3LYP) =  -2169.38171093     A.U. after    7 cycles
 Optimization completed.
    -- Stationary point found.

                         Standard orientation:
 ---------------------------------------------------------------------
 Center     Atomic      Atomic             Coordinates (Angstroms)
 Number     Number       Type             X           Y           Z
 ---------------------------------------------------------------------
      1          6           0        6.009284    1.608827    0.445789
      2          6           0        4.638419    1.406279    0.278824
      3          6           0        4.106825    0.145148   -0.051416
      4          6           0        4.943206   -0.945231   -0.217269
      5          6           0        6.320775   -0.743286   -0.035532
      6          6           0        6.855777    0.507110    0.278664
      7          6           0        2.609418    0.278265   -0.173995
      8          6           0        2.372762    1.748569    0.123851
      9          7           0        3.587628    2.335237    0.381150
     10          6           0        3.745568    3.740806    0.712172
     11          6           0        1.166450    2.418881    0.142951
     12          6           0       -1.300600    2.426450   -0.095382
     13          6           0       -0.073113    1.789674   -0.117567
     14          6           0       -4.017844    3.762336   -0.180814
     15          7           0       -3.735836    2.345491   -0.362487
     16          6           0       -2.518621    1.762676   -0.343093
     17          6           0       -2.741125    0.317157   -0.736100
     18          6           0       -4.171996    0.107300   -0.295714
     19          6           0       -4.782638    1.371165   -0.419495
     20          6           0       -6.160995    1.556918   -0.343008
     21          6           0       -6.939159    0.405495   -0.166743
     22          6           0       -6.345672   -0.856647   -0.026173
     23          6           0       -4.950739   -1.023179   -0.140621
     24         16           0       -7.386141   -2.333612    0.324031
     25         16           0        7.431976   -2.130385   -0.260255
     26          8           0        8.793624   -1.615660   -0.475057
     27          8           0        7.357934   -2.785613    1.269443
     28          8           0        6.815117   -3.122846   -1.167138
     29          8           0       -6.639373   -3.436757   -0.366018
     30          8           0       -7.334544   -2.375741    1.823135
     31          8           0       -8.715020   -1.970011   -0.264013
     32          1           0        6.429352    2.584940    0.688538
     33          1           0        4.564564   -1.930744   -0.491574
     34          1           0        7.935575    0.615703    0.381985
     35          1           0        2.071236   -0.362955    0.543339
     36          1           0        2.245577    0.012198   -1.179973
     37          1           0        4.800670    3.956396    0.910817
     38          1           0        3.406059    4.377541   -0.120748
     39          1           0        3.161844    3.992142    1.611961
     40          1           0        1.158940    3.486235    0.373070
     41          1           0       -1.328286    3.489411    0.155452
     42          1           0       -0.058585    0.720952   -0.350949
     43          1           0       -4.854538    4.042809   -0.834507
     44          1           0       -4.300479    3.970320    0.863556
     45          1           0       -3.144724    4.364493   -0.456993
     46          1           0       -2.007909   -0.375308   -0.301025
     47          1           0       -2.674563    0.241951   -1.836456
     48          1           0       -6.625048    2.542936   -0.408595
     49          1           0       -8.028344    0.459774   -0.122607
     50          1           0       -4.544526   -2.036048   -0.105335
     51          1           0        7.279496   -3.749130    1.130187
 ---------------------------------------------------------------------

 The electronic state is 1-A.
 Alpha  occ. eigenvalues --  -89.15069 -89.01692 -19.21195 -19.16800 -19.16681
 Alpha  occ. eigenvalues --  -19.02767 -19.02760 -19.02661 -14.45342 -14.45289
 Alpha  occ. eigenvalues --  -10.31199 -10.30761 -10.29789 -10.29350 -10.28294
 Alpha  occ. eigenvalues --  -10.27079 -10.27030 -10.26701 -10.26082 -10.25927
 Alpha  occ. eigenvalues --  -10.25742 -10.25610 -10.25066 -10.25041 -10.24928
 Alpha  occ. eigenvalues --  -10.24708 -10.21700 -10.21383 -10.19545 -10.19166
 Alpha  occ. eigenvalues --  -10.18828  -8.18227  -8.04528  -6.14651  -6.14497
 Alpha  occ. eigenvalues --   -6.14356  -6.00857  -6.00832  -6.00823  -1.15915
 Alpha  occ. eigenvalues --   -1.06106  -1.05363  -1.05040  -1.03214  -1.01590
 Alpha  occ. eigenvalues --   -0.92417  -0.88834  -0.88342  -0.88054  -0.87642
 Alpha  occ. eigenvalues --   -0.86823  -0.84703  -0.82757  -0.81021  -0.78220
 Alpha  occ. eigenvalues --   -0.77052  -0.76476  -0.74721  -0.73385  -0.71656
 Alpha  occ. eigenvalues --   -0.68322  -0.66472  -0.65000  -0.62972  -0.62166
 Alpha  occ. eigenvalues --   -0.60829  -0.59830  -0.58753  -0.57338  -0.56795
 Alpha  occ. eigenvalues --   -0.54802  -0.54472  -0.54271  -0.53936  -0.53158
 Alpha  occ. eigenvalues --   -0.51892  -0.51512  -0.51003  -0.49877  -0.49200
 Alpha  occ. eigenvalues --   -0.48559  -0.48357  -0.48025  -0.47489  -0.47160
 Alpha  occ. eigenvalues --   -0.46426  -0.46056  -0.45559  -0.45251  -0.44594
 Alpha  occ. eigenvalues --   -0.44013  -0.43596  -0.43424  -0.41892  -0.41448
 Alpha  occ. eigenvalues --   -0.40946  -0.40744  -0.40078  -0.39092  -0.38539
 Alpha  occ. eigenvalues --   -0.37967  -0.36600  -0.36254  -0.36193  -0.35145
 Alpha  occ. eigenvalues --   -0.34468  -0.34281  -0.34147  -0.32278  -0.31503
 Alpha  occ. eigenvalues --   -0.31234  -0.27332  -0.26533  -0.24168  -0.23634
 Alpha  occ. eigenvalues --   -0.23510  -0.20827  -0.20585  -0.19586  -0.16466
 Alpha virt. eigenvalues --   -0.13872  -0.07465  -0.07350  -0.03968  -0.01849
 Alpha virt. eigenvalues --   -0.00824  -0.00155   0.00566   0.01113   0.01493
 Alpha virt. eigenvalues --    0.02392   0.03206   0.03947   0.04638   0.05140

 Mulliken atomic charges:
              1
     1  C   -0.002807
     2  C    0.245769
     3  C   -0.138649
     4  C    0.051518
     5  C   -0.250366
     6  C    0.111823
     7  C    0.157954
     8  C    0.068072
     9  N   -0.299429
    10  C    0.075778
    11  C   -0.060430
    12  C   -0.038197
    13  C    0.066469
    14  C    0.070822
    15  N   -0.249454
    16  C    0.106734
    17  C    0.099011
    18  C   -0.084057
    19  C    0.175036
    20  C   -0.001329
    21  C    0.102835
    22  C   -0.243719
    23  C    0.058936
    24  S    0.986862
    25  S    0.996459
    26  O   -0.409502
    27  O   -0.323906
    28  O   -0.438055
    29  O   -0.525169
    30  O   -0.517502
    31  O   -0.519269
    32  H   -0.005273
    33  H   -0.014086
    34  H    0.005117
    35  H    0.083168
    36  H    0.082086
    37  H    0.055626
    38  H    0.058587
    39  H    0.060327
    40  H   -0.030640
    41  H   -0.022613
    42  H   -0.011249
    43  H    0.069813
    44  H    0.067900
    45  H    0.054983
    46  H    0.046153
    47  H    0.087177
    48  H   -0.027176
    49  H   -0.005269
    50  H   -0.018475
    51  H    0.191603
 Sum of Mulliken atomic charges =   0.00000

 Dipole moment (field-independent basis, Debye):
    X=             21.3230    Y=             18.8411    Z=             -0.4272  Tot=             28.4577
 Quadrupole moment (field-independent basis, Debye-Ang):
   XX=           -379.7118   YY=           -178.8107   ZZ=           -202.8106
   XY=            -69.9453   XZ=             29.6990   YZ=              0.3629

 Normal termination of Gaussian 09 at Thu Mar 19 21:46:17 2015.
