 Gaussian 09, Revision B.01,
 Gaussian 09:  EM64L-G09RevB.01 12-Aug-2010

 ------------------------------------------------------
 # opt=modredundant B3LYP/cc-pVDZ Geom=PrintInputOrient
 ------------------------------------------------------

 -------------------------------
 CY3 Dihedral Scan at MP2/6-31G*
 -------------------------------
 Symbolic Z-matrix:
 Charge =  0 Multiplicity = 1

 SCF Done:  E(RB3LYP) =  -2169.39489223     A.U. after   31 cycles
 SCF Done:  E(RB3LYP) =  -2169.39489902     A.U. after    8 cycles
 SCF Done:  E(RB3LYP) =  -2169.39489944     A.U. after    8 cycles
 Optimization completed.
    -- Stationary point found.
 SCF Done:  E(RB3LYP) =  -2169.39211020     A.U. after   14 cycles
 SCF Done:  E(RB3LYP) =  -2169.39204506     A.U. after   22 cycles
 SCF Done:  E(RB3LYP) =  -2169.39228696     A.U. after   22 cycles
 SCF Done:  E(RB3LYP) =  -2169.39229960     A.U. after   12 cycles
 SCF Done:  E(RB3LYP) =  -2169.39230125     A.U. after    8 cycles
 SCF Done:  E(RB3LYP) =  -2169.39230165     A.U. after    7 cycles
 SCF Done:  E(RB3LYP) =  -2169.39230189     A.U. after    7 cycles
 Optimization completed.
    -- Stationary point found.
 SCF Done:  E(RB3LYP) =  -2169.38407312     A.U. after   15 cycles
 SCF Done:  E(RB3LYP) =  -2169.38408729     A.U. after   12 cycles
 SCF Done:  E(RB3LYP) =  -2169.38408853     A.U. after    9 cycles
 SCF Done:  E(RB3LYP) =  -2169.38408867     A.U. after    7 cycles
 SCF Done:  E(RB3LYP) =  -2169.38408870     A.U. after    6 cycles
 SCF Done:  E(RB3LYP) =  -2169.38408872     A.U. after    6 cycles
 SCF Done:  E(RB3LYP) =  -2169.38408861     A.U. after    7 cycles
 SCF Done:  E(RB3LYP) =  -2169.38408863     A.U. after    7 cycles
 SCF Done:  E(RB3LYP) =  -2169.38408863     A.U. after    7 cycles
 SCF Done:  E(RB3LYP) =  -2169.38408864     A.U. after    6 cycles
 Optimization completed.
    -- Stationary point found.

                         Standard orientation:
 ---------------------------------------------------------------------
 Center     Atomic      Atomic             Coordinates (Angstroms)
 Number     Number       Type             X           Y           Z
 ---------------------------------------------------------------------
      1          6           0       -6.057885    1.636868    0.145548
      2          6           0       -4.679815    1.420419    0.095132
      3          6           0       -4.131222    0.124722    0.039411
      4          6           0       -4.957836   -0.985324    0.029156
      5          6           0       -6.344282   -0.765627    0.065911
      6          6           0       -6.894579    0.515330    0.134108
      7          6           0       -2.627692    0.246322    0.013381
      8          6           0       -2.406491    1.748720    0.055623
      9          7           0       -3.636275    2.361733    0.100666
     10          6           0       -3.811361    3.802520    0.150102
     11          6           0       -1.203143    2.421626    0.051771
     12          6           0        1.274731    2.411070   -0.005478
     13          6           0        0.052641    1.768649   -0.000641
     14          6           0        3.983418    3.738084    0.010187
     15          7           0        3.717912    2.306274   -0.062360
     16          6           0        2.508924    1.723587   -0.071203
     17          6           0        2.703232    0.223977   -0.167650
     18          6           0        4.201343    0.067451   -0.176311
     19          6           0        4.767815    1.356807   -0.146496
     20          6           0        6.143568    1.580710   -0.271736
     21          6           0        6.968422    0.449443   -0.264169
     22          6           0        6.399287   -0.821839   -0.074708
     23          6           0        5.038180   -1.021122   -0.368574
     24         16           0        7.482362   -2.289203    0.173175
     25         16           0       -7.441313   -2.180948    0.071839
     26          8           0       -8.762661   -1.755138    0.560506
     27          8           0       -7.548410   -2.439062   -1.571200
     28          8           0       -6.740746   -3.356914    0.632098
     29          8           0        7.449583   -2.403704    1.668649
     30          8           0        6.757535   -3.376173   -0.564995
     31          8           0        8.795735   -1.864658   -0.409762
     32          1           0       -6.489149    2.636384    0.201244
     33          1           0       -4.563886   -2.002241    0.006119
     34          1           0       -7.977446    0.629487    0.186971
     35          1           0       -2.186988   -0.195527   -0.895358
     36          1           0       -2.152827   -0.250363    0.875436
     37          1           0       -4.879351    4.044679    0.155219
     38          1           0       -3.351600    4.219271    1.060824
     39          1           0       -3.348864    4.278171   -0.729588
     40          1           0       -1.208078    3.512889    0.090490
     41          1           0        1.284357    3.502442    0.029974
     42          1           0        0.049810    0.675050   -0.042040
     43          1           0        4.885164    3.897626    0.615138
     44          1           0        4.151012    4.148980   -0.997756
     45          1           0        3.145404    4.259766    0.485241
     46          1           0        2.232001   -0.168539   -1.084473
     47          1           0        2.224097   -0.286039    0.684418
     48          1           0        6.562238    2.584007   -0.371555
     49          1           0        8.056383    0.528678   -0.292887
     50          1           0        4.679357   -2.048369   -0.469340
     51          1           0       -7.511699   -3.409143   -1.679014
 ---------------------------------------------------------------------

 The electronic state is 1-A.
 Alpha  occ. eigenvalues --  -89.14973 -89.01774 -19.21123 -19.16702 -19.16590
 Alpha  occ. eigenvalues --  -19.02934 -19.02892 -19.02687 -14.45855 -14.45073
 Alpha  occ. eigenvalues --  -10.30987 -10.30839 -10.29670 -10.29226 -10.28514
 Alpha  occ. eigenvalues --  -10.26960 -10.26862 -10.26585 -10.25956 -10.25820
 Alpha  occ. eigenvalues --  -10.25640 -10.25480 -10.25166 -10.25097 -10.24933
 Alpha  occ. eigenvalues --  -10.24562 -10.22003 -10.21261 -10.19569 -10.19320
 Alpha  occ. eigenvalues --  -10.18986  -8.18134  -8.04613  -6.14557  -6.14402
 Alpha  occ. eigenvalues --   -6.14262  -6.00942  -6.00920  -6.00905  -1.15811
 Alpha  occ. eigenvalues --   -1.05920  -1.05528  -1.05278  -1.03108  -1.01684
 Alpha  occ. eigenvalues --   -0.92294  -0.88752  -0.88453  -0.88151  -0.87802
 Alpha  occ. eigenvalues --   -0.86780  -0.84713  -0.82695  -0.80955  -0.78220
 Alpha  occ. eigenvalues --   -0.77169  -0.76470  -0.74855  -0.73539  -0.71588
 Alpha  occ. eigenvalues --   -0.68251  -0.66369  -0.65040  -0.63025  -0.62202
 Alpha  occ. eigenvalues --   -0.60766  -0.59955  -0.58642  -0.57221  -0.56689
 Alpha  occ. eigenvalues --   -0.54777  -0.54461  -0.54124  -0.53997  -0.53275
 Alpha  occ. eigenvalues --   -0.52120  -0.51413  -0.50900  -0.49748  -0.49067
 Alpha  occ. eigenvalues --   -0.48634  -0.48376  -0.48188  -0.47448  -0.47107
 Alpha  occ. eigenvalues --   -0.46443  -0.46063  -0.45473  -0.45232  -0.44448
 Alpha  occ. eigenvalues --   -0.43971  -0.43473  -0.43256  -0.42136  -0.41382
 Alpha  occ. eigenvalues --   -0.40934  -0.40627  -0.40434  -0.39180  -0.38635
 Alpha  occ. eigenvalues --   -0.38136  -0.36745  -0.36487  -0.36208  -0.35327
 Alpha  occ. eigenvalues --   -0.34632  -0.34180  -0.34107  -0.32136  -0.31395
 Alpha  occ. eigenvalues --   -0.31136  -0.27171  -0.26296  -0.24161  -0.23697
 Alpha  occ. eigenvalues --   -0.23625  -0.20938  -0.20527  -0.19782  -0.16568
 Alpha virt. eigenvalues --   -0.13704  -0.07376  -0.07236  -0.03767  -0.02196
 Alpha virt. eigenvalues --   -0.00488  -0.00072   0.00577   0.01154   0.01531
 Alpha virt. eigenvalues --    0.02623   0.03269   0.03947   0.04579   0.05172

 Mulliken atomic charges:
              1
     1  C   -0.003267
     2  C    0.246087
     3  C   -0.139621
     4  C    0.051415
     5  C   -0.250443
     6  C    0.111654
     7  C    0.158455
     8  C    0.066836
     9  N   -0.300186
    10  C    0.076193
    11  C   -0.060366
    12  C   -0.042022
    13  C    0.060812
    14  C    0.069828
    15  N   -0.247913
    16  C    0.065083
    17  C    0.142780
    18  C   -0.126029
    19  C    0.208457
    20  C   -0.017921
    21  C    0.107078
    22  C   -0.248360
    23  C    0.041744
    24  S    0.990510
    25  S    0.995230
    26  O   -0.410078
    27  O   -0.324824
    28  O   -0.437342
    29  O   -0.518222
    30  O   -0.521899
    31  O   -0.516657
    32  H   -0.005855
    33  H   -0.014391
    34  H    0.004635
    35  H    0.079916
    36  H    0.082726
    37  H    0.054988
    38  H    0.058619
    39  H    0.058331
    40  H   -0.032061
    41  H   -0.025844
    42  H   -0.009048
    43  H    0.073809
    44  H    0.066869
    45  H    0.058922
    46  H    0.079804
    47  H    0.080560
    48  H   -0.029701
    49  H    0.005535
    50  H   -0.005815
    51  H    0.190990
 Sum of Mulliken atomic charges =   0.00000

 Dipole moment (field-independent basis, Debye):
    X=            -21.5769    Y=             18.9088    Z=             -2.6761  Tot=             28.8144
 Quadrupole moment (field-independent basis, Debye-Ang):
   XX=           -382.2492   YY=           -180.7675   ZZ=           -201.7027
   XY=             66.6740   XZ=              2.7362   YZ=             10.5273

 Normal termination of Gaussian 09 at Fri Mar 20 02:18:46 2015.
