 Gaussian 09, Revision B.01,
 Gaussian 09:  EM64L-G09RevB.01 12-Aug-2010

 ------------------------------------------------------
 # opt=modredundant B3LYP/cc-pVDZ Geom=PrintInputOrient
 ------------------------------------------------------

 -------------------------------
 CY3 Dihedral Scan at MP2/6-31G*
 -------------------------------
 Symbolic Z-matrix:
 Charge =  0 Multiplicity = 1

 SCF Done:  E(RB3LYP) =  -2169.39489223     A.U. after   31 cycles
 SCF Done:  E(RB3LYP) =  -2169.39489903     A.U. after    8 cycles
 SCF Done:  E(RB3LYP) =  -2169.39489944     A.U. after    8 cycles
 Optimization completed.
    -- Stationary point found.
 SCF Done:  E(RB3LYP) =  -2169.39282268     A.U. after   24 cycles
 SCF Done:  E(RB3LYP) =  -2169.39284908     A.U. after    8 cycles
 SCF Done:  E(RB3LYP) =  -2169.39371593     A.U. after   24 cycles
 SCF Done:  E(RB3LYP) =  -2169.39375028     A.U. after   10 cycles
 SCF Done:  E(RB3LYP) =  -2169.39375845     A.U. after   10 cycles
 SCF Done:  E(RB3LYP) =  -2169.39376049     A.U. after   10 cycles
 SCF Done:  E(RB3LYP) =  -2169.39376103     A.U. after    7 cycles
 Optimization completed.
    -- Stationary point found.
 SCF Done:  E(RB3LYP) =  -2169.39027875     A.U. after   10 cycles
 SCF Done:  E(RB3LYP) =  -2169.39027903     A.U. after    8 cycles
 SCF Done:  E(RB3LYP) =  -2169.39027913     A.U. after    7 cycles
 SCF Done:  E(RB3LYP) =  -2169.39027920     A.U. after    7 cycles
 SCF Done:  E(RB3LYP) =  -2169.39027925     A.U. after    7 cycles
 SCF Done:  E(RB3LYP) =  -2169.39027935     A.U. after    7 cycles
 SCF Done:  E(RB3LYP) =  -2169.39027954     A.U. after    9 cycles
 SCF Done:  E(RB3LYP) =  -2169.39027971     A.U. after    9 cycles
 SCF Done:  E(RB3LYP) =  -2169.39027977     A.U. after    7 cycles
 SCF Done:  E(RB3LYP) =  -2169.39027978     A.U. after    7 cycles
 Optimization completed.
    -- Stationary point found.

                         Standard orientation:
 ---------------------------------------------------------------------
 Center     Atomic      Atomic             Coordinates (Angstroms)
 Number     Number       Type             X           Y           Z
 ---------------------------------------------------------------------
      1          6           0       -6.068531    1.637878   -0.068668
      2          6           0       -4.689400    1.426121   -0.104482
      3          6           0       -4.134900    0.134617   -0.062366
      4          6           0       -4.956102   -0.978643    0.009366
      5          6           0       -6.342512   -0.763631    0.041436
      6          6           0       -6.900577    0.515906    0.008836
      7          6           0       -2.636446    0.260231   -0.175205
      8          6           0       -2.423540    1.764459   -0.154137
      9          7           0       -3.658421    2.389625   -0.139126
     10          6           0       -3.800851    3.727591    0.429225
     11          6           0       -1.222138    2.434072   -0.103453
     12          6           0        1.254661    2.429543   -0.061867
     13          6           0        0.037209    1.781859   -0.093650
     14          6           0        3.993859    3.753551    0.019074
     15          7           0        3.703097    2.325885   -0.015501
     16          6           0        2.493854    1.745788   -0.050771
     17          6           0        2.689654    0.243566   -0.077532
     18          6           0        4.187987    0.085775   -0.048032
     19          6           0        4.751707    1.371142   -0.013921
     20          6           0        6.130659    1.593184    0.003496
     21          6           0        6.948014    0.460942   -0.004265
     22          6           0        6.398537   -0.831818   -0.021434
     23          6           0        5.008357   -1.029883   -0.059593
     24         16           0        7.507311   -2.300308    0.047808
     25         16           0       -7.431217   -2.180665    0.169111
     26          8           0       -8.751468   -1.723960    0.631920
     27          8           0       -7.548947   -2.571444   -1.446427
     28          8           0       -6.719129   -3.303336    0.817332
     29          8           0        7.651009   -2.479464    1.530748
     30          8           0        6.705532   -3.360547   -0.646568
     31          8           0        8.740464   -1.834468   -0.663435
     32          1           0       -6.501504    2.638169   -0.097352
     33          1           0       -4.556579   -1.992442    0.059398
     34          1           0       -7.983942    0.628215    0.055010
     35          1           0       -2.259259   -0.187338   -1.110274
     36          1           0       -2.099472   -0.227800    0.653974
     37          1           0       -4.863983    3.959506    0.558084
     38          1           0       -3.297402    3.780583    1.408408
     39          1           0       -3.366551    4.487004   -0.238283
     40          1           0       -1.227496    3.525915   -0.084304
     41          1           0        1.255688    3.521275   -0.046309
     42          1           0        0.038674    0.687820   -0.113199
     43          1           0        4.601484    3.977293    0.908101
     44          1           0        4.566136    4.032178   -0.878370
     45          1           0        3.070678    4.338648    0.056700
     46          1           0        2.233438   -0.188945   -0.983654
     47          1           0        2.194135   -0.226836    0.788064
     48          1           0        6.559834    2.596675    0.013716
     49          1           0        8.035766    0.549408   -0.013101
     50          1           0        4.632060   -2.053665   -0.109417
     51          1           0       -7.498626   -3.546415   -1.476393
 ---------------------------------------------------------------------

 The electronic state is 1-A.
 Alpha  occ. eigenvalues --  -89.14975 -89.01786 -19.21126 -19.16710 -19.16595
 Alpha  occ. eigenvalues --  -19.02855 -19.02828 -19.02764 -14.46196 -14.44497
 Alpha  occ. eigenvalues --  -10.31236 -10.30830 -10.29389 -10.28900 -10.28767
 Alpha  occ. eigenvalues --  -10.27053 -10.26887 -10.26606 -10.25893 -10.25788
 Alpha  occ. eigenvalues --  -10.25584 -10.25387 -10.25355 -10.25269 -10.25221
 Alpha  occ. eigenvalues --  -10.24671 -10.22131 -10.21452 -10.19609 -10.19384
 Alpha  occ. eigenvalues --  -10.18941  -8.18137  -8.04622  -6.14560  -6.14405
 Alpha  occ. eigenvalues --   -6.14265  -6.00952  -6.00925  -6.00916  -1.15820
 Alpha  occ. eigenvalues --   -1.05859  -1.05378  -1.05284  -1.03115  -1.01688
 Alpha  occ. eigenvalues --   -0.92188  -0.88838  -0.88433  -0.88158  -0.87935
 Alpha  occ. eigenvalues --   -0.86693  -0.84766  -0.82663  -0.80930  -0.78109
 Alpha  occ. eigenvalues --   -0.77307  -0.76350  -0.74993  -0.73626  -0.71524
 Alpha  occ. eigenvalues --   -0.68325  -0.66340  -0.64986  -0.63116  -0.62473
 Alpha  occ. eigenvalues --   -0.60729  -0.60157  -0.58420  -0.57085  -0.56830
 Alpha  occ. eigenvalues --   -0.54942  -0.54545  -0.54038  -0.53790  -0.53497
 Alpha  occ. eigenvalues --   -0.52225  -0.51263  -0.50728  -0.49502  -0.49100
 Alpha  occ. eigenvalues --   -0.48694  -0.48629  -0.48220  -0.47487  -0.47054
 Alpha  occ. eigenvalues --   -0.46829  -0.46158  -0.45458  -0.45375  -0.44454
 Alpha  occ. eigenvalues --   -0.44153  -0.43503  -0.43127  -0.42183  -0.41476
 Alpha  occ. eigenvalues --   -0.41001  -0.40689  -0.40157  -0.39101  -0.38396
 Alpha  occ. eigenvalues --   -0.38324  -0.36753  -0.36379  -0.36196  -0.35430
 Alpha  occ. eigenvalues --   -0.34787  -0.34188  -0.34157  -0.32141  -0.31325
 Alpha  occ. eigenvalues --   -0.31154  -0.27449  -0.26752  -0.24416  -0.23724
 Alpha  occ. eigenvalues --   -0.23618  -0.20925  -0.20672  -0.19725  -0.16555
 Alpha virt. eigenvalues --   -0.13908  -0.07520  -0.07222  -0.04119  -0.02035
 Alpha virt. eigenvalues --   -0.00314  -0.00012   0.00465   0.01197   0.01512
 Alpha virt. eigenvalues --    0.02396   0.03119   0.03836   0.04349   0.05091

 Mulliken atomic charges:
              1
     1  C   -0.003394
     2  C    0.229219
     3  C   -0.125626
     4  C    0.049112
     5  C   -0.249446
     6  C    0.111462
     7  C    0.152768
     8  C    0.061982
     9  N   -0.293353
    10  C    0.071030
    11  C   -0.051184
    12  C   -0.036530
    13  C    0.061169
    14  C    0.072744
    15  N   -0.250446
    16  C    0.058416
    17  C    0.149884
    18  C   -0.111837
    19  C    0.214371
    20  C   -0.008172
    21  C    0.109586
    22  C   -0.242592
    23  C    0.041499
    24  S    0.986341
    25  S    0.995251
    26  O   -0.409979
    27  O   -0.324460
    28  O   -0.437556
    29  O   -0.516740
    30  O   -0.524739
    31  O   -0.519773
    32  H   -0.005762
    33  H   -0.013911
    34  H    0.004851
    35  H    0.081752
    36  H    0.077627
    37  H    0.053644
    38  H    0.053096
    39  H    0.058669
    40  H   -0.031442
    41  H   -0.022150
    42  H   -0.007839
    43  H    0.073405
    44  H    0.072462
    45  H    0.054683
    46  H    0.082349
    47  H    0.082179
    48  H   -0.031726
    49  H   -0.006192
    50  H   -0.025825
    51  H    0.191123
 Sum of Mulliken atomic charges =   0.00000

 Dipole moment (field-independent basis, Debye):
    X=            -21.3622    Y=             18.7854    Z=             -1.6771  Tot=             28.4965
 Quadrupole moment (field-independent basis, Debye-Ang):
   XX=           -384.5875   YY=           -180.4364   ZZ=           -202.6150
   XY=             70.4205   XZ=              8.7187   YZ=             10.1070

 Normal termination of Gaussian 09 at Fri Mar 20 20:07:59 2015.
