 Gaussian 09, Revision B.01,
 Gaussian 09:  EM64L-G09RevB.01 12-Aug-2010

 ------------------------------------------------------
 # opt=modredundant B3LYP/cc-pVDZ Geom=PrintInputOrient
 ------------------------------------------------------

 -------------------------------
 CY3 Dihedral Scan at MP2/6-31G*
 -------------------------------
 Symbolic Z-matrix:
 Charge =  0 Multiplicity = 1

 SCF Done:  E(RB3LYP) =  -2169.39489223     A.U. after   31 cycles
 SCF Done:  E(RB3LYP) =  -2169.39489900     A.U. after    8 cycles
 SCF Done:  E(RB3LYP) =  -2169.39489940     A.U. after    8 cycles
 Optimization completed.
    -- Stationary point found.
 SCF Done:  E(RB3LYP) =  -2169.39349106     A.U. after   15 cycles
 SCF Done:  E(RB3LYP) =  -2169.39341834     A.U. after   11 cycles
 SCF Done:  E(RB3LYP) =  -2169.39363220     A.U. after   12 cycles
 SCF Done:  E(RB3LYP) =  -2169.39365082     A.U. after   10 cycles
 SCF Done:  E(RB3LYP) =  -2169.39366602     A.U. after   10 cycles
 SCF Done:  E(RB3LYP) =  -2169.39368968     A.U. after   11 cycles
 SCF Done:  E(RB3LYP) =  -2169.39371984     A.U. after   11 cycles
 Optimization completed.
    -- Stationary point found.
 SCF Done:  E(RB3LYP) =  -2169.35543745     A.U. after   18 cycles
 SCF Done:  E(RB3LYP) =  -2169.35558643     A.U. after   13 cycles
 SCF Done:  E(RB3LYP) =  -2169.35560178     A.U. after   12 cycles
 SCF Done:  E(RB3LYP) =  -2169.35560587     A.U. after   16 cycles
 SCF Done:  E(RB3LYP) =  -2169.35560751     A.U. after   16 cycles
 SCF Done:  E(RB3LYP) =  -2169.35561069     A.U. after   16 cycles
 SCF Done:  E(RB3LYP) =  -2169.35561097     A.U. after    8 cycles
 SCF Done:  E(RB3LYP) =  -2169.35561125     A.U. after   10 cycles
 SCF Done:  E(RB3LYP) =  -2169.35561126     A.U. after    7 cycles
 SCF Done:  E(RB3LYP) =  -2169.35561125     A.U. after    7 cycles
 Optimization completed.
    -- Stationary point found.

                         Standard orientation:
 ---------------------------------------------------------------------
 Center     Atomic      Atomic             Coordinates (Angstroms)
 Number     Number       Type             X           Y           Z
 ---------------------------------------------------------------------
      1          6           0        5.556180    1.164970    1.415383
      2          6           0        4.459452    0.951760    0.579674
      3          6           0        4.494216    0.053526   -0.499051
      4          6           0        5.636294   -0.692065   -0.747852
      5          6           0        6.734440   -0.492121    0.101803
      6          6           0        6.714876    0.425046    1.155670
      7          6           0        3.171418    0.132958   -1.203226
      8          6           0        2.332235    1.045078   -0.310775
      9          7           0        3.176712    1.533267    0.645273
     10          6           0        2.815917    2.515142    1.658180
     11          6           0        1.165446    1.766258   -0.686373
     12          6           0       -1.304840    2.028350   -0.560810
     13          6           0       -0.143541    1.262463   -0.581197
     14          6           0       -3.825843    3.616032   -0.550997
     15          7           0       -3.733660    2.168892   -0.420570
     16          6           0       -2.586893    1.465133   -0.437386
     17          6           0       -2.926726   -0.004407   -0.286277
     18          6           0       -4.428595    0.000025   -0.152401
     19          6           0       -4.867751    1.331468   -0.236226
     20          6           0       -6.213626    1.683361   -0.127456
     21          6           0       -7.128380    0.641618    0.058324
     22          6           0       -6.704835   -0.693513    0.125193
     23          6           0       -5.342426   -1.023343    0.035061
     24         16           0       -7.936456   -2.050811    0.304753
     25         16           0        8.244124   -1.413374   -0.211296
     26          8           0        9.360326   -0.725851    0.455609
     27          8           0        7.889482   -2.792952    0.648572
     28          8           0        8.300134   -1.807913   -1.635067
     29          8           0       -8.153454   -2.446580   -1.126266
     30          8           0       -7.197820   -3.060317    1.133874
     31          8           0       -9.100215   -1.380807    0.969955
     32          1           0        5.533253    1.882537    2.235453
     33          1           0        5.704456   -1.394054   -1.579819
     34          1           0        7.610238    0.560120    1.762705
     35          1           0        2.709679   -0.851250   -1.396183
     36          1           0        3.249824    0.631820   -2.182713
     37          1           0        3.265236    2.227254    2.619111
     38          1           0        3.175104    3.520252    1.383315
     39          1           0        1.724997    2.537293    1.763270
     40          1           0        1.238080    2.843817   -0.477582
     41          1           0       -1.210603    3.115186   -0.616265
     42          1           0       -0.254857    0.173477   -0.520110
     43          1           0       -4.836674    3.880014   -0.881912
     44          1           0       -3.622977    4.111273    0.412330
     45          1           0       -3.109902    3.974461   -1.302680
     46          1           0       -2.420928   -0.435259    0.593414
     47          1           0       -2.581453   -0.572426   -1.166431
     48          1           0       -6.552325    2.720524   -0.166139
     49          1           0       -8.195354    0.840164    0.174007
     50          1           0       -5.052335   -2.071505    0.131749
     51          1           0        8.172778   -3.532927    0.077260
 ---------------------------------------------------------------------

 The electronic state is 1-A.
 Alpha  occ. eigenvalues --  -89.15990 -89.00953 -19.22112 -19.17729 -19.17590
 Alpha  occ. eigenvalues --  -19.02005 -19.01997 -19.01870 -14.47245 -14.44336
 Alpha  occ. eigenvalues --  -10.32905 -10.30651 -10.30080 -10.29756 -10.28049
 Alpha  occ. eigenvalues --  -10.27949 -10.27662 -10.27259 -10.27036 -10.26862
 Alpha  occ. eigenvalues --  -10.26778 -10.26691 -10.24527 -10.24387 -10.24176
 Alpha  occ. eigenvalues --  -10.23754 -10.20961 -10.20406 -10.18683 -10.18338
 Alpha  occ. eigenvalues --  -10.17849  -8.19151  -8.03786  -6.15572  -6.15418
 Alpha  occ. eigenvalues --   -6.15283  -6.00114  -6.00091  -6.00082  -1.16856
 Alpha  occ. eigenvalues --   -1.07604  -1.06297  -1.04280  -1.04152  -1.00819
 Alpha  occ. eigenvalues --   -0.93573  -0.88704  -0.87571  -0.87287  -0.87228
 Alpha  occ. eigenvalues --   -0.86840  -0.84764  -0.83021  -0.81281  -0.78551
 Alpha  occ. eigenvalues --   -0.77251  -0.76258  -0.74544  -0.73201  -0.71690
 Alpha  occ. eigenvalues --   -0.68510  -0.67098  -0.65414  -0.63419  -0.61502
 Alpha  occ. eigenvalues --   -0.60879  -0.59583  -0.59183  -0.58193  -0.56451
 Alpha  occ. eigenvalues --   -0.55490  -0.55290  -0.54141  -0.53338  -0.52432
 Alpha  occ. eigenvalues --   -0.52293  -0.51916  -0.51190  -0.50669  -0.49908
 Alpha  occ. eigenvalues --   -0.48911  -0.48673  -0.48230  -0.47580  -0.47261
 Alpha  occ. eigenvalues --   -0.46455  -0.45826  -0.45637  -0.45455  -0.44543
 Alpha  occ. eigenvalues --   -0.44363  -0.43511  -0.42810  -0.41922  -0.41396
 Alpha  occ. eigenvalues --   -0.40968  -0.40473  -0.39768  -0.39499  -0.38216
 Alpha  occ. eigenvalues --   -0.37424  -0.37206  -0.35795  -0.35503  -0.35251
 Alpha  occ. eigenvalues --   -0.35186  -0.34314  -0.33866  -0.33135  -0.32579
 Alpha  occ. eigenvalues --   -0.31293  -0.27310  -0.25725  -0.23331  -0.22895
 Alpha  occ. eigenvalues --   -0.22762  -0.20082  -0.19841  -0.18799  -0.15731
 Alpha virt. eigenvalues --   -0.14015  -0.08885  -0.08384  -0.06963  -0.01258
 Alpha virt. eigenvalues --   -0.00701  -0.00037   0.00216   0.01337   0.02005
 Alpha virt. eigenvalues --    0.02349   0.02383   0.03573   0.04115   0.04844

 Mulliken atomic charges:
              1
     1  C    0.013837
     2  C    0.233066
     3  C   -0.132716
     4  C    0.051926
     5  C   -0.247386
     6  C    0.107820
     7  C    0.163037
     8  C    0.010346
     9  N   -0.244354
    10  C    0.066387
    11  C   -0.060513
    12  C   -0.061709
    13  C    0.062101
    14  C    0.072904
    15  N   -0.259435
    16  C    0.064570
    17  C    0.153820
    18  C   -0.120438
    19  C    0.205881
    20  C   -0.007107
    21  C    0.104999
    22  C   -0.242627
    23  C    0.048062
    24  S    0.984227
    25  S    0.998171
    26  O   -0.405717
    27  O   -0.321629
    28  O   -0.434922
    29  O   -0.521985
    30  O   -0.529757
    31  O   -0.523819
    32  H   -0.005176
    33  H   -0.009431
    34  H    0.010223
    35  H    0.072375
    36  H    0.091802
    37  H    0.064856
    38  H    0.063767
    39  H    0.067897
    40  H   -0.002639
    41  H   -0.030893
    42  H   -0.008965
    43  H    0.067567
    44  H    0.057432
    45  H    0.057610
    46  H    0.073854
    47  H    0.078419
    48  H   -0.028956
    49  H   -0.010280
    50  H   -0.030024
    51  H    0.193524
 Sum of Mulliken atomic charges =   0.00000

 Dipole moment (field-independent basis, Debye):
    X=             26.0299    Y=             14.6515    Z=             -0.2268  Tot=             29.8710
 Quadrupole moment (field-independent basis, Debye-Ang):
   XX=           -429.3975   YY=           -181.0207   ZZ=           -196.5393
   XY=            -84.3831   XZ=             21.5471   YZ=              8.4791

 Normal termination of Gaussian 09 at Wed Mar 18 04:56:46 2015.
