 Gaussian 09, Revision B.01,
 Gaussian 09:  EM64L-G09RevB.01 12-Aug-2010

 ------------------------------------------------------
 # opt=modredundant B3LYP/cc-pVDZ Geom=PrintInputOrient
 ------------------------------------------------------

 -------------------------------
 CY3 Dihedral Scan at MP2/6-31G*
 -------------------------------
 Symbolic Z-matrix:
 Charge =  0 Multiplicity = 1

 SCF Done:  E(RB3LYP) =  -2169.39489223     A.U. after   31 cycles
 SCF Done:  E(RB3LYP) =  -2169.39489903     A.U. after    8 cycles
 SCF Done:  E(RB3LYP) =  -2169.39489944     A.U. after    8 cycles
 Optimization completed.
    -- Stationary point found.
 SCF Done:  E(RB3LYP) =  -2169.39191576     A.U. after   13 cycles
 SCF Done:  E(RB3LYP) =  -2169.39191220     A.U. after   10 cycles
 SCF Done:  E(RB3LYP) =  -2169.39220142     A.U. after   24 cycles
 SCF Done:  E(RB3LYP) =  -2169.39223120     A.U. after   10 cycles
 SCF Done:  E(RB3LYP) =  -2169.39225700     A.U. after   10 cycles
 SCF Done:  E(RB3LYP) =  -2169.39227513     A.U. after   10 cycles
 SCF Done:  E(RB3LYP) =  -2169.39229406     A.U. after   11 cycles
 SCF Done:  E(RB3LYP) =  -2169.39231820     A.U. after   10 cycles
 SCF Done:  E(RB3LYP) =  -2169.39232513     A.U. after   24 cycles
 SCF Done:  E(RB3LYP) =  -2169.39232577     A.U. after    8 cycles
 SCF Done:  E(RB3LYP) =  -2169.39232583     A.U. after    7 cycles
 Optimization completed.
    -- Stationary point found.
 SCF Done:  E(RB3LYP) =  -2169.38334723     A.U. after   24 cycles
 SCF Done:  E(RB3LYP) =  -2169.38408680     A.U. after   12 cycles
 SCF Done:  E(RB3LYP) =  -2169.38410259     A.U. after   10 cycles
 SCF Done:  E(RB3LYP) =  -2169.38410445     A.U. after    8 cycles
 SCF Done:  E(RB3LYP) =  -2169.38410483     A.U. after    8 cycles
 SCF Done:  E(RB3LYP) =  -2169.38410491     A.U. after    7 cycles
 Optimization completed.
    -- Stationary point found.

                         Standard orientation:
 ---------------------------------------------------------------------
 Center     Atomic      Atomic             Coordinates (Angstroms)
 Number     Number       Type             X           Y           Z
 ---------------------------------------------------------------------
      1          6           0       -6.031555    1.590909   -0.413941
      2          6           0       -4.686285    1.391604   -0.092494
      3          6           0       -4.120597    0.101887   -0.142763
      4          6           0       -4.958906   -0.999925   -0.065226
      5          6           0       -6.345507   -0.762929   -0.009238
      6          6           0       -6.893552    0.516077   -0.151361
      7          6           0       -2.619810    0.235712   -0.092101
      8          6           0       -2.415847    1.740956   -0.023216
      9          7           0       -3.653523    2.341417   -0.024802
     10          6           0       -3.860169    3.778013    0.025581
     11          6           0       -1.218555    2.422770    0.016982
     12          6           0        1.259722    2.428409    0.056003
     13          6           0        0.042826    1.777932    0.019690
     14          6           0        3.996848    3.752943    0.166912
     15          7           0        3.708283    2.326628    0.091858
     16          6           0        2.499043    1.746413    0.047150
     17          6           0        2.696140    0.245433   -0.022070
     18          6           0        4.194923    0.088878   -0.012873
     19          6           0        4.757870    1.373195    0.054118
     20          6           0        6.136604    1.595768    0.061605
     21          6           0        6.954824    0.464944    0.009020
     22          6           0        6.406337   -0.827062   -0.041324
     23          6           0        5.015839   -1.025019   -0.068307
     24         16           0        7.515669   -2.297044   -0.035339
     25         16           0       -7.446061   -2.152263    0.240080
     26          8           0       -8.750094   -1.643730    0.695303
     27          8           0       -7.602432   -2.655794   -1.341154
     28          8           0       -6.737083   -3.237776    0.951822
     29          8           0        7.663314   -2.539183    1.438133
     30          8           0        6.711570   -3.327006   -0.771642
     31          8           0        8.747110   -1.802615   -0.730190
     32          1           0       -6.442148    2.588833   -0.576941
     33          1           0       -4.575887   -2.020081   -0.016262
     34          1           0       -7.976405    0.639442   -0.173294
     35          1           0       -2.136554   -0.184843   -0.989478
     36          1           0       -2.176908   -0.271692    0.780369
     37          1           0       -4.913634    3.984998    0.247668
     38          1           0       -3.246597    4.220267    0.824896
     39          1           0       -3.594151    4.254718   -0.932597
     40          1           0       -1.232389    3.514423    0.039453
     41          1           0        1.259028    3.519784    0.088577
     42          1           0        0.048523    0.684113   -0.011222
     43          1           0        4.648092    3.943077    1.032322
     44          1           0        4.521961    4.071636   -0.746202
     45          1           0        3.075240    4.331375    0.277888
     46          1           0        2.230451   -0.163498   -0.934135
     47          1           0        2.210969   -0.248494    0.836397
     48          1           0        6.565327    2.598950    0.095910
     49          1           0        8.042331    0.554768   -0.011208
     50          1           0        4.639007   -2.046847   -0.146136
     51          1           0       -7.563554   -3.630950   -1.302310
 ---------------------------------------------------------------------

 The electronic state is 1-A.
 Alpha  occ. eigenvalues --  -89.14898 -89.01685 -19.21050 -19.16618 -19.16519
 Alpha  occ. eigenvalues --  -19.02751 -19.02727 -19.02652 -14.46021 -14.45123
 Alpha  occ. eigenvalues --  -10.31130 -10.31112 -10.29675 -10.29241 -10.28659
 Alpha  occ. eigenvalues --  -10.27086 -10.26994 -10.26548 -10.26020 -10.25819
 Alpha  occ. eigenvalues --  -10.25740 -10.25528 -10.25237 -10.25165 -10.25081
 Alpha  occ. eigenvalues --  -10.24683 -10.22005 -10.21339 -10.19508 -10.19266
 Alpha  occ. eigenvalues --  -10.18819  -8.18059  -8.04520  -6.14482  -6.14328
 Alpha  occ. eigenvalues --   -6.14187  -6.00850  -6.00824  -6.00815  -1.15735
 Alpha  occ. eigenvalues --   -1.05975  -1.05706  -1.05203  -1.03030  -1.01583
 Alpha  occ. eigenvalues --   -0.92339  -0.88893  -0.88327  -0.88054  -0.87819
 Alpha  occ. eigenvalues --   -0.86886  -0.84778  -0.82669  -0.80968  -0.78235
 Alpha  occ. eigenvalues --   -0.77268  -0.76531  -0.74978  -0.73598  -0.71564
 Alpha  occ. eigenvalues --   -0.68280  -0.66293  -0.65071  -0.63061  -0.62379
 Alpha  occ. eigenvalues --   -0.60870  -0.60096  -0.58586  -0.57292  -0.56785
 Alpha  occ. eigenvalues --   -0.54847  -0.54573  -0.54203  -0.53849  -0.53376
 Alpha  occ. eigenvalues --   -0.52166  -0.51272  -0.50740  -0.49833  -0.49041
 Alpha  occ. eigenvalues --   -0.48677  -0.48524  -0.48243  -0.47544  -0.47166
 Alpha  occ. eigenvalues --   -0.46727  -0.46131  -0.45461  -0.45323  -0.44517
 Alpha  occ. eigenvalues --   -0.44078  -0.43518  -0.43250  -0.42120  -0.41428
 Alpha  occ. eigenvalues --   -0.41048  -0.40705  -0.40432  -0.39052  -0.38414
 Alpha  occ. eigenvalues --   -0.38253  -0.36671  -0.36277  -0.36132  -0.35348
 Alpha  occ. eigenvalues --   -0.34683  -0.34104  -0.34083  -0.32085  -0.31147
 Alpha  occ. eigenvalues --   -0.31053  -0.27335  -0.26639  -0.24256  -0.23621
 Alpha  occ. eigenvalues --   -0.23516  -0.20820  -0.20576  -0.19618  -0.16454
 Alpha virt. eigenvalues --   -0.13812  -0.07623  -0.07426  -0.03917  -0.01933
 Alpha virt. eigenvalues --   -0.00244  -0.00093   0.00499   0.01095   0.01485
 Alpha virt. eigenvalues --    0.02383   0.03409   0.03968   0.04428   0.04675

 Mulliken atomic charges:
              1
     1  C    0.005461
     2  C    0.202714
     3  C   -0.118396
     4  C    0.070609
     5  C   -0.255260
     6  C    0.093317
     7  C    0.135150
     8  C    0.072977
     9  N   -0.288401
    10  C    0.076670
    11  C   -0.051793
    12  C   -0.038267
    13  C    0.061719
    14  C    0.072815
    15  N   -0.251447
    16  C    0.058685
    17  C    0.149404
    18  C   -0.112189
    19  C    0.214159
    20  C   -0.008332
    21  C    0.108569
    22  C   -0.242606
    23  C    0.042286
    24  S    0.986137
    25  S    0.993761
    26  O   -0.411588
    27  O   -0.325121
    28  O   -0.438401
    29  O   -0.517373
    30  O   -0.525446
    31  O   -0.520336
    32  H   -0.000494
    33  H   -0.010563
    34  H    0.012736
    35  H    0.079689
    36  H    0.082255
    37  H    0.055841
    38  H    0.059980
    39  H    0.055483
    40  H   -0.030832
    41  H   -0.023136
    42  H   -0.008726
    43  H    0.073297
    44  H    0.071350
    45  H    0.054374
    46  H    0.081140
    47  H    0.082190
    48  H   -0.032066
    49  H   -0.006617
    50  H   -0.026341
    51  H    0.190963
 Sum of Mulliken atomic charges =   0.00000

 Dipole moment (field-independent basis, Debye):
    X=            -21.7806    Y=             18.9135    Z=             -1.6522  Tot=             28.8937
 Quadrupole moment (field-independent basis, Debye-Ang):
   XX=           -385.8990   YY=           -178.6568   ZZ=           -203.4059
   XY=             70.1241   XZ=             15.3019   YZ=              7.6221

 Normal termination of Gaussian 09 at Tue Mar 17 17:20:51 2015.
