 Gaussian 09, Revision B.01,
 Gaussian 09:  EM64L-G09RevB.01 12-Aug-2010

 ------------------------------------------------------
 # opt=modredundant B3LYP/cc-pVDZ Geom=PrintInputOrient
 ------------------------------------------------------

 -------------------------------
 CY3 Dihedral Scan at MP2/6-31G*
 -------------------------------
 Symbolic Z-matrix:
 Charge =  0 Multiplicity = 1

 SCF Done:  E(RB3LYP) =  -2169.39489223     A.U. after   31 cycles
 SCF Done:  E(RB3LYP) =  -2169.39489902     A.U. after    8 cycles
 SCF Done:  E(RB3LYP) =  -2169.39489943     A.U. after    8 cycles
 Optimization completed.
    -- Stationary point found.
 SCF Done:  E(RB3LYP) =  -2169.39346290     A.U. after   18 cycles
 SCF Done:  E(RB3LYP) =  -2169.39333299     A.U. after   12 cycles
 SCF Done:  E(RB3LYP) =  -2169.39368857     A.U. after   12 cycles
 SCF Done:  E(RB3LYP) =  -2169.39369891     A.U. after   10 cycles
 SCF Done:  E(RB3LYP) =  -2169.39370085     A.U. after   10 cycles
 SCF Done:  E(RB3LYP) =  -2169.39370236     A.U. after   10 cycles
 SCF Done:  E(RB3LYP) =  -2169.39370350     A.U. after   10 cycles
 SCF Done:  E(RB3LYP) =  -2169.39370611     A.U. after    9 cycles
 SCF Done:  E(RB3LYP) =  -2169.39370617     A.U. after    7 cycles
 Optimization completed.
    -- Stationary point found.
 SCF Done:  E(RB3LYP) =  -2169.39001315     A.U. after   24 cycles
 SCF Done:  E(RB3LYP) =  -2169.38986177     A.U. after   10 cycles
 SCF Done:  E(RB3LYP) =  -2169.39033057     A.U. after   13 cycles
 SCF Done:  E(RB3LYP) =  -2169.39033904     A.U. after   11 cycles
 SCF Done:  E(RB3LYP) =  -2169.39034019     A.U. after   10 cycles
 SCF Done:  E(RB3LYP) =  -2169.39034045     A.U. after    9 cycles
 SCF Done:  E(RB3LYP) =  -2169.39034050     A.U. after    7 cycles
 SCF Done:  E(RB3LYP) =  -2169.39034052     A.U. after    6 cycles
 Optimization completed.
    -- Stationary point found.

                         Standard orientation:
 ---------------------------------------------------------------------
 Center     Atomic      Atomic             Coordinates (Angstroms)
 Number     Number       Type             X           Y           Z
 ---------------------------------------------------------------------
      1          6           0       -6.043589    1.614932    0.002540
      2          6           0       -4.669150    1.418985   -0.142820
      3          6           0       -4.095436    0.132710   -0.132216
      4          6           0       -4.893413   -0.988045    0.017487
      5          6           0       -6.277824   -0.790257    0.146549
      6          6           0       -6.851557    0.482058    0.151560
      7          6           0       -2.601349    0.278286   -0.281590
      8          6           0       -2.414574    1.781863   -0.392356
      9          7           0       -3.653112    2.375214   -0.306878
     10          6           0       -3.861025    3.809413   -0.392455
     11          6           0       -1.232919    2.469560   -0.553267
     12          6           0        1.209434    2.433476   -0.098919
     13          6           0        0.042024    1.838535   -0.526630
     14          6           0        3.830805    3.624675    0.884515
     15          7           0        3.606110    2.272326    0.389951
     16          6           0        2.450047    1.751572   -0.047087
     17          6           0        2.702849    0.316334   -0.460531
     18          6           0        4.171160    0.125586   -0.180966
     19          6           0        4.669636    1.335621    0.326660
     20          6           0        6.010336    1.515659    0.675142
     21          6           0        6.855058    0.416778    0.505414
     22          6           0        6.367296   -0.806050    0.015139
     23          6           0        5.019007   -0.956972   -0.347952
     24         16           0        7.497412   -2.253615   -0.121661
     25         16           0       -7.336693   -2.218635    0.357560
     26          8           0       -8.638017   -1.772525    0.880975
     27          8           0       -7.530065   -2.639823   -1.243347
     28          8           0       -6.576730   -3.320285    0.987174
     29          8           0        7.390283   -2.832193    1.258638
     30          8           0        6.865795   -3.073403   -1.207127
     31          8           0        8.817330   -1.627227   -0.452266
     32          1           0       -6.492616    2.608149    0.010462
     33          1           0       -4.477775   -1.996080    0.048460
     34          1           0       -7.929402    0.581290    0.281363
     35          1           0       -2.212654   -0.238680   -1.174990
     36          1           0       -2.054967   -0.125058    0.586300
     37          1           0       -4.934476    4.026889   -0.398739
     38          1           0       -3.401704    4.325718    0.466675
     39          1           0       -3.419232    4.205031   -1.320655
     40          1           0       -1.255571    3.560829   -0.501620
     41          1           0        1.174810    3.484093    0.196714
     42          1           0        0.073795    0.769194   -0.762258
     43          1           0        4.269145    3.571789    1.891702
     44          1           0        4.535841    4.146090    0.219864
     45          1           0        2.891979    4.183708    0.930440
     46          1           0        2.448024    0.170660   -1.523360
     47          1           0        2.065262   -0.371603    0.119806
     48          1           0        6.392864    2.465505    1.053114
     49          1           0        7.920085    0.482978    0.734261
     50          1           0        4.698058   -1.916566   -0.758395
     51          1           0       -7.483619   -3.615378   -1.256705
 ---------------------------------------------------------------------

 The electronic state is 1-A.
 Alpha  occ. eigenvalues --  -89.14917 -89.01736 -19.21073 -19.16634 -19.16542
 Alpha  occ. eigenvalues --  -19.02807 -19.02771 -19.02702 -14.46199 -14.44910
 Alpha  occ. eigenvalues --  -10.31241 -10.30918 -10.29601 -10.29143 -10.28762
 Alpha  occ. eigenvalues --  -10.27059 -10.26892 -10.26513 -10.25880 -10.25763
 Alpha  occ. eigenvalues --  -10.25573 -10.25396 -10.25322 -10.25248 -10.25226
 Alpha  occ. eigenvalues --  -10.24505 -10.22100 -10.21422 -10.19558 -10.19357
 Alpha  occ. eigenvalues --  -10.18892  -8.18078  -8.04571  -6.14501  -6.14346
 Alpha  occ. eigenvalues --   -6.14206  -6.00902  -6.00874  -6.00866  -1.15755
 Alpha  occ. eigenvalues --   -1.05859  -1.05801  -1.05229  -1.03043  -1.01635
 Alpha  occ. eigenvalues --   -0.92217  -0.88829  -0.88379  -0.88106  -0.87913
 Alpha  occ. eigenvalues --   -0.86824  -0.84783  -0.82708  -0.80953  -0.78208
 Alpha  occ. eigenvalues --   -0.77331  -0.76497  -0.74984  -0.73624  -0.71592
 Alpha  occ. eigenvalues --   -0.68322  -0.66308  -0.65091  -0.63087  -0.62453
 Alpha  occ. eigenvalues --   -0.60791  -0.60092  -0.58585  -0.57195  -0.56771
 Alpha  occ. eigenvalues --   -0.54920  -0.54493  -0.54082  -0.53938  -0.53490
 Alpha  occ. eigenvalues --   -0.52255  -0.51358  -0.50838  -0.49687  -0.49100
 Alpha  occ. eigenvalues --   -0.48699  -0.48618  -0.48221  -0.47471  -0.47065
 Alpha  occ. eigenvalues --   -0.46817  -0.46122  -0.45450  -0.45362  -0.44518
 Alpha  occ. eigenvalues --   -0.44130  -0.43441  -0.43392  -0.42238  -0.41465
 Alpha  occ. eigenvalues --   -0.40843  -0.40583  -0.40406  -0.39036  -0.38442
 Alpha  occ. eigenvalues --   -0.38309  -0.36619  -0.36336  -0.36158  -0.35305
 Alpha  occ. eigenvalues --   -0.34746  -0.34120  -0.34065  -0.32087  -0.31329
 Alpha  occ. eigenvalues --   -0.31182  -0.27243  -0.26705  -0.24316  -0.23672
 Alpha  occ. eigenvalues --   -0.23563  -0.20884  -0.20614  -0.19681  -0.16503
 Alpha virt. eigenvalues --   -0.13751  -0.07410  -0.07189  -0.03898  -0.02019
 Alpha virt. eigenvalues --   -0.00350  -0.00046   0.00543   0.01010   0.01379
 Alpha virt. eigenvalues --    0.02019   0.03274   0.03966   0.04442   0.05117

 Mulliken atomic charges:
              1
     1  C   -0.001303
     2  C    0.245225
     3  C   -0.143177
     4  C    0.053160
     5  C   -0.250437
     6  C    0.110668
     7  C    0.158520
     8  C    0.062356
     9  N   -0.296151
    10  C    0.074779
    11  C   -0.065092
    12  C   -0.030777
    13  C    0.053236
    14  C    0.072520
    15  N   -0.249128
    16  C    0.053220
    17  C    0.149640
    18  C   -0.111712
    19  C    0.212653
    20  C   -0.007501
    21  C    0.110757
    22  C   -0.242551
    23  C    0.040115
    24  S    0.986215
    25  S    0.994748
    26  O   -0.410540
    27  O   -0.324887
    28  O   -0.437531
    29  O   -0.517354
    30  O   -0.524965
    31  O   -0.520165
    32  H   -0.006362
    33  H   -0.014957
    34  H    0.004550
    35  H    0.081023
    36  H    0.079212
    37  H    0.054895
    38  H    0.056309
    39  H    0.059811
    40  H   -0.026620
    41  H   -0.020188
    42  H   -0.003880
    43  H    0.073538
    44  H    0.072346
    45  H    0.054256
    46  H    0.083585
    47  H    0.080953
    48  H   -0.031739
    49  H   -0.006351
    50  H   -0.025802
    51  H    0.190882
 Sum of Mulliken atomic charges =   0.00000

 Dipole moment (field-independent basis, Debye):
    X=            -21.8065    Y=             18.7833    Z=             -1.0055  Tot=             28.7984
 Quadrupole moment (field-independent basis, Debye-Ang):
   XX=           -384.4581   YY=           -180.2345   ZZ=           -201.2247
   XY=             66.4965   XZ=             24.0307   YZ=             11.3613

 Normal termination of Gaussian 09 at Wed Mar 18 07:58:44 2015.
