 Gaussian 09, Revision B.01,
 Gaussian 09:  EM64L-G09RevB.01 12-Aug-2010

 ------------------------------------------------------
 # opt=modredundant B3LYP/cc-pVDZ Geom=PrintInputOrient
 ------------------------------------------------------

 -------------------------------
 CY3 Dihedral Scan at MP2/6-31G*
 -------------------------------
 Symbolic Z-matrix:
 Charge =  0 Multiplicity = 1

 SCF Done:  E(RB3LYP) =  -2169.39489223     A.U. after   31 cycles
 SCF Done:  E(RB3LYP) =  -2169.39489903     A.U. after    8 cycles
 SCF Done:  E(RB3LYP) =  -2169.39489944     A.U. after    8 cycles
 Optimization completed.
    -- Stationary point found.
 SCF Done:  E(RB3LYP) =  -2169.39190470     A.U. after   13 cycles
 SCF Done:  E(RB3LYP) =  -2169.39193751     A.U. after   11 cycles
 SCF Done:  E(RB3LYP) =  -2169.39220250     A.U. after   12 cycles
 SCF Done:  E(RB3LYP) =  -2169.39222946     A.U. after   10 cycles
 SCF Done:  E(RB3LYP) =  -2169.39224608     A.U. after   10 cycles
 SCF Done:  E(RB3LYP) =  -2169.39225499     A.U. after   10 cycles
 SCF Done:  E(RB3LYP) =  -2169.39226556     A.U. after   10 cycles
 SCF Done:  E(RB3LYP) =  -2169.39228418     A.U. after    7 cycles
 SCF Done:  E(RB3LYP) =  -2169.39228426     A.U. after    9 cycles
 SCF Done:  E(RB3LYP) =  -2169.39228429     A.U. after    7 cycles
 Optimization completed.
    -- Stationary point found.
 SCF Done:  E(RB3LYP) =  -2169.38321111     A.U. after   13 cycles
 SCF Done:  E(RB3LYP) =  -2169.38399658     A.U. after   12 cycles
 SCF Done:  E(RB3LYP) =  -2169.38401103     A.U. after   10 cycles
 SCF Done:  E(RB3LYP) =  -2169.38401248     A.U. after    8 cycles
 SCF Done:  E(RB3LYP) =  -2169.38401266     A.U. after    9 cycles
 SCF Done:  E(RB3LYP) =  -2169.38401268     A.U. after    7 cycles
 SCF Done:  E(RB3LYP) =  -2169.38401268     A.U. after    7 cycles
 Optimization completed.
    -- Stationary point found.

                         Standard orientation:
 ---------------------------------------------------------------------
 Center     Atomic      Atomic             Coordinates (Angstroms)
 Number     Number       Type             X           Y           Z
 ---------------------------------------------------------------------
      1          6           0        6.023251    1.582905   -0.518637
      2          6           0        4.688460    1.381052   -0.157200
      3          6           0        4.120744    0.092218   -0.214316
      4          6           0        4.959941   -1.010982   -0.177026
      5          6           0        6.347281   -0.773206   -0.135623
      6          6           0        6.892255    0.505263   -0.294638
      7          6           0        2.620686    0.227018   -0.148826
      8          6           0        2.419295    1.731157   -0.051597
      9          7           0        3.657357    2.330506   -0.061765
     10          6           0        3.866494    3.766167    0.002432
     11          6           0        1.223466    2.413338    0.017055
     12          6           0       -1.253906    2.421914    0.089141
     13          6           0       -0.038680    1.770105    0.028279
     14          6           0       -3.989045    3.749507    0.237130
     15          7           0       -3.702281    2.323352    0.153019
     16          6           0       -2.494336    1.741922    0.091366
     17          6           0       -2.694100    0.241439    0.018367
     18          6           0       -4.192980    0.086889    0.039166
     19          6           0       -4.753425    1.371454    0.122382
     20          6           0       -6.131094    1.594219    0.174572
     21          6           0       -6.951254    0.464309    0.131214
     22          6           0       -6.405713   -0.826069    0.033109
     23          6           0       -5.015550   -1.026414    0.002237
     24         16           0       -7.518826   -2.286823   -0.101758
     25         16           0        7.453231   -2.171113    0.030564
     26          8           0        8.800411   -1.764160   -0.399585
     27          8           0        7.462136   -2.317121    1.690776
     28          8           0        6.798156   -3.391970   -0.488154
     29          8           0       -7.681760   -2.385137   -1.590292
     30          8           0       -6.709296   -3.384358    0.522227
     31          8           0       -8.741827   -1.860274    0.650566
     32          1           0        6.427654    2.580606   -0.697126
     33          1           0        4.582043   -2.034307   -0.173733
     34          1           0        7.973053    0.620324   -0.378652
     35          1           0        2.182634   -0.295834    0.716822
     36          1           0        2.130865   -0.176163   -1.050728
     37          1           0        4.923311    3.969060    0.212292
     38          1           0        3.587808    4.254440   -0.946280
     39          1           0        3.264712    4.199823    0.815333
     40          1           0        1.239074    3.504518    0.055691
     41          1           0       -1.250728    3.512837    0.134121
     42          1           0       -0.046539    0.676785   -0.016761
     43          1           0       -4.564135    4.060416   -0.647875
     44          1           0       -4.592491    3.944813    1.135718
     45          1           0       -3.064062    4.330487    0.291697
     46          1           0       -2.202471   -0.256069    0.871097
     47          1           0       -2.236500   -0.164934   -0.898905
     48          1           0       -6.557616    2.595965    0.251849
     49          1           0       -8.037776    0.551454    0.186613
     50          1           0       -4.639672   -2.050773   -0.037325
     51          1           0        7.371536   -3.274547    1.860652
 ---------------------------------------------------------------------

 The electronic state is 1-A.
 Alpha  occ. eigenvalues --  -89.14932 -89.01697 -19.21071 -19.16679 -19.16542
 Alpha  occ. eigenvalues --  -19.02760 -19.02742 -19.02667 -14.46037 -14.45126
 Alpha  occ. eigenvalues --  -10.31144 -10.31128 -10.29666 -10.29253 -10.28675
 Alpha  occ. eigenvalues --  -10.27117 -10.27008 -10.26566 -10.26039 -10.25787
 Alpha  occ. eigenvalues --  -10.25687 -10.25528 -10.25248 -10.25179 -10.25096
 Alpha  occ. eigenvalues --  -10.24696 -10.22018 -10.21353 -10.19530 -10.19267
 Alpha  occ. eigenvalues --  -10.18831  -8.18092  -8.04533  -6.14515  -6.14362
 Alpha  occ. eigenvalues --   -6.14219  -6.00863  -6.00836  -6.00827  -1.15777
 Alpha  occ. eigenvalues --   -1.05982  -1.05720  -1.05228  -1.03082  -1.01595
 Alpha  occ. eigenvalues --   -0.92339  -0.88906  -0.88343  -0.88063  -0.87833
 Alpha  occ. eigenvalues --   -0.86894  -0.84785  -0.82669  -0.80964  -0.78237
 Alpha  occ. eigenvalues --   -0.77280  -0.76540  -0.74989  -0.73608  -0.71578
 Alpha  occ. eigenvalues --   -0.68299  -0.66283  -0.65093  -0.63050  -0.62390
 Alpha  occ. eigenvalues --   -0.60881  -0.60112  -0.58621  -0.57290  -0.56810
 Alpha  occ. eigenvalues --   -0.54857  -0.54506  -0.54224  -0.53908  -0.53389
 Alpha  occ. eigenvalues --   -0.52173  -0.51263  -0.50732  -0.49853  -0.49119
 Alpha  occ. eigenvalues --   -0.48689  -0.48541  -0.48259  -0.47562  -0.47130
 Alpha  occ. eigenvalues --   -0.46742  -0.46140  -0.45475  -0.45341  -0.44554
 Alpha  occ. eigenvalues --   -0.44096  -0.43516  -0.43268  -0.42133  -0.41437
 Alpha  occ. eigenvalues --   -0.41062  -0.40687  -0.40452  -0.39105  -0.38368
 Alpha  occ. eigenvalues --   -0.38261  -0.36686  -0.36286  -0.36144  -0.35315
 Alpha  occ. eigenvalues --   -0.34696  -0.34155  -0.34080  -0.32175  -0.31152
 Alpha  occ. eigenvalues --   -0.31083  -0.27346  -0.26654  -0.24264  -0.23635
 Alpha  occ. eigenvalues --   -0.23527  -0.20830  -0.20591  -0.19629  -0.16467
 Alpha virt. eigenvalues --   -0.13827  -0.07697  -0.07390  -0.03926  -0.01947
 Alpha virt. eigenvalues --   -0.00213  -0.00044   0.00565   0.01086   0.01479
 Alpha virt. eigenvalues --    0.02319   0.03124   0.03620   0.04422   0.05093

 Mulliken atomic charges:
              1
     1  C    0.004631
     2  C    0.200542
     3  C   -0.115573
     4  C    0.064756
     5  C   -0.256521
     6  C    0.092338
     7  C    0.135168
     8  C    0.072817
     9  N   -0.287981
    10  C    0.076801
    11  C   -0.051107
    12  C   -0.038069
    13  C    0.061571
    14  C    0.073042
    15  N   -0.251405
    16  C    0.058358
    17  C    0.149349
    18  C   -0.112462
    19  C    0.214451
    20  C   -0.008195
    21  C    0.107685
    22  C   -0.242633
    23  C    0.043272
    24  S    0.986170
    25  S    0.997031
    26  O   -0.410863
    27  O   -0.325219
    28  O   -0.438371
    29  O   -0.517530
    30  O   -0.525344
    31  O   -0.520271
    32  H   -0.000297
    33  H   -0.008901
    34  H    0.014646
    35  H    0.080188
    36  H    0.081614
    37  H    0.055731
    38  H    0.055718
    39  H    0.059651
    40  H   -0.030821
    41  H   -0.023066
    42  H   -0.008785
    43  H    0.072305
    44  H    0.072488
    45  H    0.054069
    46  H    0.081509
    47  H    0.081753
    48  H   -0.032154
    49  H   -0.006547
    50  H   -0.026361
    51  H    0.190821
 Sum of Mulliken atomic charges =   0.00000

 Dipole moment (field-independent basis, Debye):
    X=             21.5983    Y=             19.1757    Z=              2.0765  Tot=             28.9570
 Quadrupole moment (field-independent basis, Debye-Ang):
   XX=           -389.3574   YY=           -181.9071   ZZ=           -200.5668
   XY=            -66.1134   XZ=              3.4041   YZ=             -7.5945

 Normal termination of Gaussian 09 at Tue Mar 17 16:30:11 2015.
