 Gaussian 09, Revision B.01,
 Gaussian 09:  EM64L-G09RevB.01 12-Aug-2010

 ------------------------------------------------------
 # opt=modredundant B3LYP/cc-pVDZ Geom=PrintInputOrient
 ------------------------------------------------------

 -------------------------------
 CY3 Dihedral Scan at MP2/6-31G*
 -------------------------------
 Symbolic Z-matrix:
 Charge =  0 Multiplicity = 1

 SCF Done:  E(RB3LYP) =  -2169.39489223     A.U. after   31 cycles
 SCF Done:  E(RB3LYP) =  -2169.39489903     A.U. after    8 cycles
 SCF Done:  E(RB3LYP) =  -2169.39489944     A.U. after    8 cycles
 Optimization completed.
    -- Stationary point found.
 SCF Done:  E(RB3LYP) =  -2169.39148951     A.U. after   13 cycles
 SCF Done:  E(RB3LYP) =  -2169.39147394     A.U. after   10 cycles
 SCF Done:  E(RB3LYP) =  -2169.39200110     A.U. after   12 cycles
 SCF Done:  E(RB3LYP) =  -2169.39204005     A.U. after   10 cycles
 SCF Done:  E(RB3LYP) =  -2169.39204689     A.U. after   10 cycles
 SCF Done:  E(RB3LYP) =  -2169.39204920     A.U. after    8 cycles
 SCF Done:  E(RB3LYP) =  -2169.39205132     A.U. after    9 cycles
 Optimization completed.
    -- Stationary point found.
 SCF Done:  E(RB3LYP) =  -2169.38320818     A.U. after   11 cycles
 SCF Done:  E(RB3LYP) =  -2169.38321131     A.U. after   10 cycles
 SCF Done:  E(RB3LYP) =  -2169.38321194     A.U. after    8 cycles
 SCF Done:  E(RB3LYP) =  -2169.38321209     A.U. after    7 cycles
 SCF Done:  E(RB3LYP) =  -2169.38321206     A.U. after    7 cycles
 SCF Done:  E(RB3LYP) =  -2169.38321212     A.U. after    7 cycles
 SCF Done:  E(RB3LYP) =  -2169.38321225     A.U. after    7 cycles
 SCF Done:  E(RB3LYP) =  -2169.38321233     A.U. after    7 cycles
 SCF Done:  E(RB3LYP) =  -2169.38321237     A.U. after    8 cycles
 SCF Done:  E(RB3LYP) =  -2169.38321241     A.U. after    7 cycles
 Optimization completed.
    -- Stationary point found.

                         Standard orientation:
 ---------------------------------------------------------------------
 Center     Atomic      Atomic             Coordinates (Angstroms)
 Number     Number       Type             X           Y           Z
 ---------------------------------------------------------------------
      1          6           0        6.069686    1.625654   -0.131332
      2          6           0        4.690108    1.425742   -0.011460
      3          6           0        4.143240    0.128466   -0.087339
      4          6           0        4.966188   -0.954500    0.181212
      5          6           0        6.330622   -0.786926   -0.117250
      6          6           0        6.883872    0.490789   -0.254528
      7          6           0        2.638738    0.254877   -0.026119
      8          6           0        2.421092    1.758143    0.030838
      9          7           0        3.654178    2.367581    0.058722
     10          6           0        3.845846    3.806394    0.108124
     11          6           0        1.220192    2.434745    0.029287
     12          6           0       -1.257597    2.432666    0.013170
     13          6           0       -0.038654    1.785030    0.018328
     14          6           0       -3.997362    3.755541   -0.022043
     15          7           0       -3.705987    2.327967   -0.003580
     16          6           0       -2.495603    1.748403    0.008877
     17          6           0       -2.690186    0.245584    0.023696
     18          6           0       -4.188836    0.087055    0.020585
     19          6           0       -4.753940    1.372112    0.006753
     20          6           0       -6.132946    1.592832    0.018323
     21          6           0       -6.949366    0.459649    0.034080
     22          6           0       -6.398905   -0.832482    0.030933
     23          6           0       -5.008025   -1.029371    0.039906
     24         16           0       -7.507082   -2.302272   -0.024435
     25         16           0        7.412504   -2.210559   -0.124832
     26          8           0        8.677355   -1.830451   -0.773673
     27          8           0        7.683979   -2.359672    1.513640
     28          8           0        6.654207   -3.414670   -0.526954
     29          8           0       -7.664561   -2.486808   -1.505225
     30          8           0       -6.697378   -3.359487    0.665586
     31          8           0       -8.734114   -1.836231    0.697389
     32          1           0        6.515372    2.620148   -0.160688
     33          1           0        4.562770   -1.959171    0.325610
     34          1           0        7.953978    0.594252   -0.435900
     35          1           0        2.207886   -0.250331    0.853925
     36          1           0        2.152036   -0.178366   -0.915313
     37          1           0        4.901147    4.028493    0.302128
     38          1           0        3.549429    4.279568   -0.842837
     39          1           0        3.246652    4.239951    0.923099
     40          1           0        1.228939    3.526729    0.034582
     41          1           0       -1.259456    3.524517    0.017185
     42          1           0       -0.040143    0.690736    0.014873
     43          1           0       -4.651761    3.978329   -0.877267
     44          1           0       -4.520123    4.036969    0.904547
     45          1           0       -3.077192    4.339752   -0.112640
     46          1           0       -2.216660   -0.196571    0.916032
     47          1           0       -2.211182   -0.215004   -0.856468
     48          1           0       -6.563047    2.595980    0.025179
     49          1           0       -8.036821    0.546801    0.065542
     50          1           0       -4.629504   -2.052913    0.075633
     51          1           0        7.618706   -3.317274    1.694692
 ---------------------------------------------------------------------

 The electronic state is 1-A.
 Alpha  occ. eigenvalues --  -89.14977 -89.01671 -19.21148 -19.16649 -19.16601
 Alpha  occ. eigenvalues --  -19.02738 -19.02714 -19.02638 -14.46006 -14.45212
 Alpha  occ. eigenvalues --  -10.31101 -10.31099 -10.29750 -10.29315 -10.28652
 Alpha  occ. eigenvalues --  -10.26984 -10.26983 -10.26575 -10.26027 -10.25943
 Alpha  occ. eigenvalues --  -10.25627 -10.25459 -10.25223 -10.25151 -10.25066
 Alpha  occ. eigenvalues --  -10.24671 -10.21993 -10.21325 -10.19495 -10.19251
 Alpha  occ. eigenvalues --  -10.18804  -8.18136  -8.04507  -6.14560  -6.14403
 Alpha  occ. eigenvalues --   -6.14266  -6.00837  -6.00810  -6.00801  -1.15804
 Alpha  occ. eigenvalues --   -1.06049  -1.05693  -1.05283  -1.03096  -1.01569
 Alpha  occ. eigenvalues --   -0.92377  -0.88871  -0.88314  -0.88039  -0.87806
 Alpha  occ. eigenvalues --   -0.86834  -0.84785  -0.82691  -0.80935  -0.78254
 Alpha  occ. eigenvalues --   -0.77268  -0.76527  -0.74948  -0.73595  -0.71605
 Alpha  occ. eigenvalues --   -0.68296  -0.66309  -0.65104  -0.63044  -0.62364
 Alpha  occ. eigenvalues --   -0.60862  -0.60081  -0.58630  -0.57409  -0.56813
 Alpha  occ. eigenvalues --   -0.54833  -0.54504  -0.54208  -0.53937  -0.53365
 Alpha  occ. eigenvalues --   -0.52152  -0.51322  -0.50872  -0.49770  -0.49088
 Alpha  occ. eigenvalues --   -0.48668  -0.48509  -0.48196  -0.47425  -0.47084
 Alpha  occ. eigenvalues --   -0.46713  -0.46098  -0.45484  -0.45317  -0.44515
 Alpha  occ. eigenvalues --   -0.44066  -0.43535  -0.43393  -0.42110  -0.41421
 Alpha  occ. eigenvalues --   -0.41168  -0.40669  -0.40241  -0.39153  -0.38402
 Alpha  occ. eigenvalues --   -0.38239  -0.36691  -0.36264  -0.36176  -0.35267
 Alpha  occ. eigenvalues --   -0.34670  -0.34158  -0.34079  -0.32221  -0.31184
 Alpha  occ. eigenvalues --   -0.31085  -0.27316  -0.26626  -0.24237  -0.23608
 Alpha  occ. eigenvalues --   -0.23501  -0.20807  -0.20562  -0.19604  -0.16441
 Alpha virt. eigenvalues --   -0.13789  -0.07773  -0.07516  -0.03888  -0.01916
 Alpha virt. eigenvalues --   -0.00190  -0.00032   0.00567   0.01041   0.01472
 Alpha virt. eigenvalues --    0.02407   0.03273   0.03592   0.04395   0.05058

 Mulliken atomic charges:
              1
     1  C   -0.014570
     2  C    0.234773
     3  C   -0.151414
     4  C    0.081083
     5  C   -0.262897
     6  C    0.120626
     7  C    0.135342
     8  C    0.072956
     9  N   -0.286660
    10  C    0.075111
    11  C   -0.063338
    12  C   -0.038312
    13  C    0.062323
    14  C    0.072848
    15  N   -0.251503
    16  C    0.058825
    17  C    0.149824
    18  C   -0.112407
    19  C    0.214265
    20  C   -0.008427
    21  C    0.108613
    22  C   -0.242629
    23  C    0.042176
    24  S    0.986109
    25  S    0.993025
    26  O   -0.409307
    27  O   -0.326583
    28  O   -0.439638
    29  O   -0.517424
    30  O   -0.525393
    31  O   -0.520411
    32  H   -0.007869
    33  H    0.005417
    34  H    0.008748
    35  H    0.077659
    36  H    0.079397
    37  H    0.057837
    38  H    0.057495
    39  H    0.059660
    40  H   -0.031616
    41  H   -0.023362
    42  H   -0.008794
    43  H    0.073242
    44  H    0.071369
    45  H    0.054294
    46  H    0.081259
    47  H    0.082069
    48  H   -0.032158
    49  H   -0.006635
    50  H   -0.026269
    51  H    0.191270
 Sum of Mulliken atomic charges =   0.00000

 Dipole moment (field-independent basis, Debye):
    X=             21.9165    Y=             19.3480    Z=              2.0931  Tot=             29.3097
 Quadrupole moment (field-independent basis, Debye-Ang):
   XX=           -383.6404   YY=           -181.8792   ZZ=           -201.3725
   XY=            -67.5342   XZ=             12.0474   YZ=             -8.3554

 Normal termination of Gaussian 09 at Sat Mar 21 05:35:40 2015.
