 Gaussian 09, Revision B.01,
 Gaussian 09:  EM64L-G09RevB.01 12-Aug-2010

 ------------------------------------------------------
 # opt=modredundant B3LYP/cc-pVDZ Geom=PrintInputOrient
 ------------------------------------------------------

 -------------------------------
 CY3 Dihedral Scan at MP2/6-31G*
 -------------------------------
 Symbolic Z-matrix:
 Charge =  0 Multiplicity = 1

 SCF Done:  E(RB3LYP) =  -2169.39489223     A.U. after   31 cycles
 SCF Done:  E(RB3LYP) =  -2169.39489903     A.U. after    8 cycles
 SCF Done:  E(RB3LYP) =  -2169.39489944     A.U. after    8 cycles
 Optimization completed.
    -- Stationary point found.
 SCF Done:  E(RB3LYP) =  -2169.38805481     A.U. after   14 cycles
 SCF Done:  E(RB3LYP) =  -2169.39076503     A.U. after   16 cycles
 SCF Done:  E(RB3LYP) =  -2169.39166831     A.U. after   12 cycles
 SCF Done:  E(RB3LYP) =  -2169.39172164     A.U. after   11 cycles
 SCF Done:  E(RB3LYP) =  -2169.39172982     A.U. after   10 cycles
 SCF Done:  E(RB3LYP) =  -2169.39173692     A.U. after   10 cycles
 SCF Done:  E(RB3LYP) =  -2169.39174919     A.U. after   10 cycles
 Optimization completed.
    -- Stationary point found.
 SCF Done:  E(RB3LYP) =  -2169.38142320     A.U. after   10 cycles
 SCF Done:  E(RB3LYP) =  -2169.38142447     A.U. after   10 cycles
 SCF Done:  E(RB3LYP) =  -2169.38142478     A.U. after    8 cycles
 SCF Done:  E(RB3LYP) =  -2169.38142478     A.U. after    8 cycles
 SCF Done:  E(RB3LYP) =  -2169.38142484     A.U. after    7 cycles
 SCF Done:  E(RB3LYP) =  -2169.38142491     A.U. after    7 cycles
 SCF Done:  E(RB3LYP) =  -2169.38142489     A.U. after    7 cycles
 SCF Done:  E(RB3LYP) =  -2169.38142499     A.U. after    7 cycles
 SCF Done:  E(RB3LYP) =  -2169.38142512     A.U. after    8 cycles
 SCF Done:  E(RB3LYP) =  -2169.38142520     A.U. after    7 cycles
 Optimization completed.
    -- Stationary point found.

                         Standard orientation:
 ---------------------------------------------------------------------
 Center     Atomic      Atomic             Coordinates (Angstroms)
 Number     Number       Type             X           Y           Z
 ---------------------------------------------------------------------
      1          6           0       -6.007978    1.601248    0.507803
      2          6           0       -4.639631    1.395841    0.325191
      3          6           0       -4.109608    0.123978    0.035415
      4          6           0       -4.946051   -0.972480   -0.082360
      5          6           0       -6.324049   -0.761597    0.086132
      6          6           0       -6.854865    0.493750    0.386895
      7          6           0       -2.611018    0.249629   -0.082186
      8          6           0       -2.373718    1.730443    0.157411
      9          7           0       -3.588106    2.326895    0.394024
     10          6           0       -3.744474    3.743866    0.673097
     11          6           0       -1.167820    2.401549    0.146471
     12          6           0        1.296449    2.406552   -0.114300
     13          6           0        0.071198    1.765366   -0.099664
     14          6           0        4.006621    3.750568   -0.289810
     15          7           0        3.727632    2.327282   -0.417658
     16          6           0        2.513998    1.739798   -0.356275
     17          6           0        2.737529    0.282786   -0.703836
     18          6           0        4.176969    0.095102   -0.281180
     19          6           0        4.778440    1.356524   -0.461853
     20          6           0        6.156916    1.551511   -0.419547
     21          6           0        6.944725    0.410475   -0.219940
     22          6           0        6.361056   -0.848828   -0.024109
     23          6           0        4.964857   -1.025668   -0.103379
     24         16           0        7.416645   -2.309309    0.349494
     25         16           0       -7.433820   -2.160876   -0.050781
     26          8           0       -8.723459   -1.805815    0.562873
     27          8           0       -7.626834   -2.178785   -1.706068
     28          8           0       -6.717509   -3.407023    0.297125
     29          8           0        7.391793   -2.310269    1.849766
     30          8           0        6.664436   -3.435148   -0.296615
     31          8           0        8.732648   -1.954879   -0.272151
     32          1           0       -6.424496    2.580648    0.743283
     33          1           0       -4.564604   -1.973533   -0.287929
     34          1           0       -7.930099    0.597994    0.533263
     35          1           0       -2.238811   -0.058974   -1.072684
     36          1           0       -2.080639   -0.362181    0.666232
     37          1           0       -4.801896    3.971648    0.843638
     38          1           0       -3.175449    4.024725    1.573670
     39          1           0       -3.386677    4.348364   -0.175943
     40          1           0       -1.160409    3.476852    0.336000
     41          1           0        1.322585    3.478100    0.097011
     42          1           0        0.057600    0.688509   -0.292175
     43          1           0        4.316182    3.993238    0.739295
     44          1           0        4.824092    4.013422   -0.974519
     45          1           0        3.123346    4.339735   -0.561429
     46          1           0        2.652856    0.169858   -1.799675
     47          1           0        2.015433   -0.397824   -0.232841
     48          1           0        6.614206    2.536865   -0.528519
     49          1           0        8.034293    0.471199   -0.200420
     50          1           0        4.564781   -2.038608   -0.025668
     51          1           0       -7.610068   -3.123448   -1.953871
 ---------------------------------------------------------------------

 The electronic state is 1-A.
 Alpha  occ. eigenvalues --  -89.15051 -89.01683 -19.21207 -19.16772 -19.16675
 Alpha  occ. eigenvalues --  -19.02759 -19.02751 -19.02652 -14.45345 -14.45284
 Alpha  occ. eigenvalues --  -10.31193 -10.30763 -10.29791 -10.29348 -10.28295
 Alpha  occ. eigenvalues --  -10.27077 -10.27029 -10.26699 -10.26083 -10.25933
 Alpha  occ. eigenvalues --  -10.25738 -10.25603 -10.25062 -10.25041 -10.24930
 Alpha  occ. eigenvalues --  -10.24706 -10.21695 -10.21383 -10.19546 -10.19161
 Alpha  occ. eigenvalues --  -10.18825  -8.18212  -8.04519  -6.14636  -6.14480
 Alpha  occ. eigenvalues --   -6.14341  -6.00849  -6.00823  -6.00814  -1.15892
 Alpha  occ. eigenvalues --   -1.06103  -1.05363  -1.05039  -1.03186  -1.01583
 Alpha  occ. eigenvalues --   -0.92417  -0.88831  -0.88334  -0.88047  -0.87640
 Alpha  occ. eigenvalues --   -0.86821  -0.84704  -0.82760  -0.81019  -0.78221
 Alpha  occ. eigenvalues --   -0.77050  -0.76476  -0.74722  -0.73386  -0.71663
 Alpha  occ. eigenvalues --   -0.68328  -0.66466  -0.64989  -0.62961  -0.62163
 Alpha  occ. eigenvalues --   -0.60828  -0.59820  -0.58739  -0.57302  -0.56796
 Alpha  occ. eigenvalues --   -0.54801  -0.54493  -0.54266  -0.53937  -0.53159
 Alpha  occ. eigenvalues --   -0.51888  -0.51517  -0.51002  -0.49872  -0.49157
 Alpha  occ. eigenvalues --   -0.48554  -0.48342  -0.48024  -0.47501  -0.47186
 Alpha  occ. eigenvalues --   -0.46425  -0.46054  -0.45565  -0.45245  -0.44563
 Alpha  occ. eigenvalues --   -0.44010  -0.43588  -0.43421  -0.41891  -0.41431
 Alpha  occ. eigenvalues --   -0.40959  -0.40739  -0.40069  -0.39119  -0.38566
 Alpha  occ. eigenvalues --   -0.37971  -0.36591  -0.36264  -0.36186  -0.35147
 Alpha  occ. eigenvalues --   -0.34467  -0.34244  -0.34143  -0.32211  -0.31500
 Alpha  occ. eigenvalues --   -0.31232  -0.27334  -0.26532  -0.24163  -0.23625
 Alpha  occ. eigenvalues --   -0.23504  -0.20820  -0.20575  -0.19579  -0.16457
 Alpha virt. eigenvalues --   -0.13871  -0.07472  -0.07344  -0.03969  -0.01852
 Alpha virt. eigenvalues --   -0.00837  -0.00121   0.00490   0.01136   0.01520
 Alpha virt. eigenvalues --    0.02366   0.03266   0.03835   0.04625   0.05233

 Mulliken atomic charges:
              1
     1  C   -0.002764
     2  C    0.246017
     3  C   -0.139122
     4  C    0.052840
     5  C   -0.250028
     6  C    0.111377
     7  C    0.158087
     8  C    0.068096
     9  N   -0.299452
    10  C    0.075866
    11  C   -0.060608
    12  C   -0.038094
    13  C    0.066498
    14  C    0.070849
    15  N   -0.249320
    16  C    0.107048
    17  C    0.098224
    18  C   -0.084021
    19  C    0.175123
    20  C   -0.001537
    21  C    0.102573
    22  C   -0.243828
    23  C    0.059467
    24  S    0.987000
    25  S    0.995394
    26  O   -0.409692
    27  O   -0.325097
    28  O   -0.436492
    29  O   -0.517134
    30  O   -0.525165
    31  O   -0.519350
    32  H   -0.005256
    33  H   -0.014208
    34  H    0.005180
    35  H    0.079995
    36  H    0.085229
    37  H    0.055562
    38  H    0.060472
    39  H    0.058430
    40  H   -0.030734
    41  H   -0.022524
    42  H   -0.011318
    43  H    0.068215
    44  H    0.069693
    45  H    0.054722
    46  H    0.086771
    47  H    0.046569
    48  H   -0.027244
    49  H   -0.005233
    50  H   -0.018151
    51  H    0.191073
 Sum of Mulliken atomic charges =   0.00000

 Dipole moment (field-independent basis, Debye):
    X=            -21.7463    Y=             19.2635    Z=             -3.6379  Tot=             29.2783
 Quadrupole moment (field-independent basis, Debye-Ang):
   XX=           -376.9506   YY=           -184.0717   ZZ=           -199.0113
   XY=             66.1999   XZ=             -7.7998   YZ=             13.7827

 Normal termination of Gaussian 09 at Thu Mar 19 18:48:25 2015.
