 Gaussian 09, Revision B.01,
 Gaussian 09:  EM64L-G09RevB.01 12-Aug-2010

 ------------------------------------------------------
 # opt=modredundant B3LYP/cc-pVDZ Geom=PrintInputOrient
 ------------------------------------------------------

 -------------------------------
 CY3 Dihedral Scan at MP2/6-31G*
 -------------------------------
 Symbolic Z-matrix:
 Charge =  0 Multiplicity = 1

 SCF Done:  E(RB3LYP) =  -2169.39489223     A.U. after   31 cycles
 SCF Done:  E(RB3LYP) =  -2169.39489903     A.U. after    8 cycles
 SCF Done:  E(RB3LYP) =  -2169.39489944     A.U. after    8 cycles
 Optimization completed.
    -- Stationary point found.
 SCF Done:  E(RB3LYP) =  -2169.39233937     A.U. after   17 cycles
 SCF Done:  E(RB3LYP) =  -2169.39234085     A.U. after    8 cycles
 SCF Done:  E(RB3LYP) =  -2169.39296454     A.U. after   12 cycles
 SCF Done:  E(RB3LYP) =  -2169.39301454     A.U. after   11 cycles
 SCF Done:  E(RB3LYP) =  -2169.39302548     A.U. after   11 cycles
 SCF Done:  E(RB3LYP) =  -2169.39303086     A.U. after   11 cycles
 SCF Done:  E(RB3LYP) =  -2169.39303298     A.U. after   10 cycles
 Optimization completed on the basis of negligible forces.
    -- Stationary point found.
 SCF Done:  E(RB3LYP) =  -2169.38739319     A.U. after   13 cycles
 SCF Done:  E(RB3LYP) =  -2169.38741357     A.U. after   13 cycles
 SCF Done:  E(RB3LYP) =  -2169.38742706     A.U. after   12 cycles
 SCF Done:  E(RB3LYP) =  -2169.38742784     A.U. after   10 cycles
 SCF Done:  E(RB3LYP) =  -2169.38742838     A.U. after    9 cycles
 SCF Done:  E(RB3LYP) =  -2169.38742849     A.U. after    7 cycles
 SCF Done:  E(RB3LYP) =  -2169.38742852     A.U. after    7 cycles
 SCF Done:  E(RB3LYP) =  -2169.38742865     A.U. after    7 cycles
 SCF Done:  E(RB3LYP) =  -2169.38742884     A.U. after    7 cycles
 SCF Done:  E(RB3LYP) =  -2169.38742900     A.U. after    8 cycles
 Optimization completed.
    -- Stationary point found.

                         Standard orientation:
 ---------------------------------------------------------------------
 Center     Atomic      Atomic             Coordinates (Angstroms)
 Number     Number       Type             X           Y           Z
 ---------------------------------------------------------------------
      1          6           0        6.045777    1.630437    0.200964
      2          6           0        4.667500    1.420183    0.134669
      3          6           0        4.117804    0.133966   -0.026029
      4          6           0        4.942955   -0.973295   -0.119634
      5          6           0        6.328794   -0.761976   -0.039187
      6          6           0        6.881096    0.511642    0.106857
      7          6           0        2.615736    0.262633   -0.079950
      8          6           0        2.396499    1.758645    0.067397
      9          7           0        3.625128    2.361610    0.192982
     10          6           0        3.801383    3.794223    0.354118
     11          6           0        1.194722    2.435063    0.074487
     12          6           0       -1.280290    2.434645   -0.064230
     13          6           0       -0.059181    1.790249   -0.056944
     14          6           0       -3.988679    3.765227   -0.104105
     15          7           0       -3.719754    2.336204   -0.206057
     16          6           0       -2.514017    1.751874   -0.177132
     17          6           0       -2.715054    0.254955   -0.255863
     18          6           0       -4.203332    0.104102   -0.473700
     19          6           0       -4.767196    1.380748   -0.289358
     20          6           0       -6.125729    1.586615   -0.028221
     21          6           0       -6.917583    0.447971    0.125585
     22          6           0       -6.372163   -0.837488   -0.031722
     23          6           0       -5.034143   -1.009100   -0.412457
     24         16           0       -7.441387   -2.322757    0.182047
     25         16           0        7.424513   -2.171866   -0.179515
     26          8           0        8.772005   -1.691993   -0.525151
     27          8           0        7.437258   -2.661666    1.412958
     28          8           0        6.756820   -3.250466   -0.940208
     29          8           0       -8.010949   -2.483257   -1.195930
     30          8           0       -6.462106   -3.381199    0.594779
     31          8           0       -8.414194   -1.882051    1.232887
     32          1           0        6.479196    2.624471    0.311579
     33          1           0        4.548864   -1.980048   -0.264517
     34          1           0        7.965039    0.624310    0.135688
     35          1           0        2.117687   -0.293905    0.731058
     36          1           0        2.197596   -0.109384   -1.029570
     37          1           0        4.865648    4.024378    0.470737
     38          1           0        3.417873    4.335083   -0.526223
     39          1           0        3.266471    4.149363    1.249320
     40          1           0        1.200270    3.521577    0.182941
     41          1           0       -1.291859    3.521748    0.038314
     42          1           0       -0.055845    0.700663   -0.158641
     43          1           0       -4.856250    4.005886   -0.731693
     44          1           0       -4.213585    4.040856    0.938277
     45          1           0       -3.127809    4.342250   -0.459638
     46          1           0       -2.423985   -0.207896    0.702779
     47          1           0       -2.080197   -0.195185   -1.036234
     48          1           0       -6.543515    2.583962    0.122005
     49          1           0       -7.967002    0.524609    0.415312
     50          1           0       -4.654519   -2.030962   -0.488270
     51          1           0        7.368247   -3.635365    1.379832
 ---------------------------------------------------------------------

 The electronic state is 1-A.
 Alpha  occ. eigenvalues --  -89.15018 -89.01705 -19.21157 -19.16748 -19.16631
 Alpha  occ. eigenvalues --  -19.02751 -19.02741 -19.02691 -14.45800 -14.45157
 Alpha  occ. eigenvalues --  -10.31087 -10.30919 -10.29724 -10.29286 -10.28566
 Alpha  occ. eigenvalues --  -10.27021 -10.26967 -10.26638 -10.26011 -10.25866
 Alpha  occ. eigenvalues --  -10.25689 -10.25538 -10.25215 -10.25154 -10.24995
 Alpha  occ. eigenvalues --  -10.24631 -10.22007 -10.21304 -10.19504 -10.19349
 Alpha  occ. eigenvalues --  -10.18803  -8.18178  -8.04541  -6.14601  -6.14447
 Alpha  occ. eigenvalues --   -6.14306  -6.00872  -6.00843  -6.00835  -1.15862
 Alpha  occ. eigenvalues --   -1.05997  -1.05589  -1.05319  -1.03158  -1.01603
 Alpha  occ. eigenvalues --   -0.92350  -0.88823  -0.88329  -0.88099  -0.87743
 Alpha  occ. eigenvalues --   -0.86837  -0.84754  -0.82730  -0.80989  -0.78249
 Alpha  occ. eigenvalues --   -0.77204  -0.76529  -0.74892  -0.73542  -0.71629
 Alpha  occ. eigenvalues --   -0.68287  -0.66424  -0.65087  -0.63104  -0.62266
 Alpha  occ. eigenvalues --   -0.60846  -0.59993  -0.58709  -0.57294  -0.56775
 Alpha  occ. eigenvalues --   -0.54770  -0.54483  -0.54189  -0.53980  -0.53326
 Alpha  occ. eigenvalues --   -0.52148  -0.51462  -0.50951  -0.49813  -0.49139
 Alpha  occ. eigenvalues --   -0.48576  -0.48417  -0.48282  -0.47487  -0.47137
 Alpha  occ. eigenvalues --   -0.46583  -0.46140  -0.45516  -0.45259  -0.44519
 Alpha  occ. eigenvalues --   -0.43852  -0.43529  -0.43358  -0.42246  -0.41476
 Alpha  occ. eigenvalues --   -0.40959  -0.40678  -0.40351  -0.39096  -0.38387
 Alpha  occ. eigenvalues --   -0.38271  -0.36688  -0.36221  -0.36166  -0.35377
 Alpha  occ. eigenvalues --   -0.34541  -0.34231  -0.34154  -0.32211  -0.31443
 Alpha  occ. eigenvalues --   -0.31206  -0.27315  -0.26470  -0.24188  -0.23638
 Alpha  occ. eigenvalues --   -0.23552  -0.20840  -0.20627  -0.19607  -0.16473
 Alpha virt. eigenvalues --   -0.13744  -0.07417  -0.07287  -0.03860  -0.02299
 Alpha virt. eigenvalues --   -0.00404  -0.00083   0.00541   0.01126   0.01500
 Alpha virt. eigenvalues --    0.02559   0.03230   0.03907   0.04585   0.05207

 Mulliken atomic charges:
              1
     1  C   -0.003196
     2  C    0.246179
     3  C   -0.139464
     4  C    0.051524
     5  C   -0.250419
     6  C    0.111636
     7  C    0.158087
     8  C    0.067455
     9  N   -0.300312
    10  C    0.076032
    11  C   -0.060824
    12  C   -0.037685
    13  C    0.062019
    14  C    0.070441
    15  N   -0.243977
    16  C    0.071490
    17  C    0.125568
    18  C   -0.112238
    19  C    0.186952
    20  C   -0.001230
    21  C    0.111536
    22  C   -0.241201
    23  C    0.055878
    24  S    0.985494
    25  S    0.995837
    26  O   -0.409758
    27  O   -0.324283
    28  O   -0.437808
    29  O   -0.514924
    30  O   -0.527592
    31  O   -0.522432
    32  H   -0.005688
    33  H   -0.014241
    34  H    0.004819
    35  H    0.081621
    36  H    0.081967
    37  H    0.055286
    38  H    0.058368
    39  H    0.059156
    40  H   -0.031628
    41  H   -0.025430
    42  H   -0.010219
    43  H    0.072927
    44  H    0.067983
    45  H    0.059219
    46  H    0.091935
    47  H    0.067056
    48  H   -0.029730
    49  H   -0.004642
    50  H   -0.018866
    51  H    0.191325
 Sum of Mulliken atomic charges =   0.00000

 Dipole moment (field-independent basis, Debye):
    X=             21.5765    Y=             18.9948    Z=              1.0761  Tot=             28.7664
 Quadrupole moment (field-independent basis, Debye-Ang):
   XX=           -382.9870   YY=           -179.2580   ZZ=           -203.0860
   XY=            -69.0286   XZ=             18.2817   YZ=             -2.9795

 Normal termination of Gaussian 09 at Thu Mar 19 23:03:32 2015.
