 Gaussian 09, Revision B.01,
 Gaussian 09:  EM64L-G09RevB.01 12-Aug-2010

 ------------------------------------------------------
 # opt=modredundant B3LYP/cc-pVDZ Geom=PrintInputOrient
 ------------------------------------------------------

 -------------------------------
 CY3 Dihedral Scan at MP2/6-31G*
 -------------------------------
 Symbolic Z-matrix:
 Charge =  0 Multiplicity = 1

 SCF Done:  E(RB3LYP) =  -2169.39489223     A.U. after   31 cycles
 SCF Done:  E(RB3LYP) =  -2169.39489901     A.U. after    8 cycles
 SCF Done:  E(RB3LYP) =  -2169.39489942     A.U. after    8 cycles
 Optimization completed.
    -- Stationary point found.
 SCF Done:  E(RB3LYP) =  -2169.39231906     A.U. after   14 cycles
 SCF Done:  E(RB3LYP) =  -2169.39231537     A.U. after   10 cycles
 SCF Done:  E(RB3LYP) =  -2169.39242533     A.U. after   15 cycles
 SCF Done:  E(RB3LYP) =  -2169.39243840     A.U. after   11 cycles
 SCF Done:  E(RB3LYP) =  -2169.39244320     A.U. after   10 cycles
 SCF Done:  E(RB3LYP) =  -2169.39244707     A.U. after   11 cycles
 SCF Done:  E(RB3LYP) =  -2169.39245175     A.U. after   12 cycles
 SCF Done:  E(RB3LYP) =  -2169.39325721     A.U. after   16 cycles
 SCF Done:  E(RB3LYP) =  -2169.39325787     A.U. after   10 cycles
 SCF Done:  E(RB3LYP) =  -2169.39325796     A.U. after    9 cycles
 SCF Done:  E(RB3LYP) =  -2169.39325798     A.U. after    7 cycles
 Optimization completed.
    -- Stationary point found.
 SCF Done:  E(RB3LYP) =  -2169.38600018     A.U. after   15 cycles
 SCF Done:  E(RB3LYP) =  -2169.38603475     A.U. after    8 cycles
 SCF Done:  E(RB3LYP) =  -2169.38639096     A.U. after   12 cycles
 SCF Done:  E(RB3LYP) =  -2169.38639541     A.U. after   10 cycles
 SCF Done:  E(RB3LYP) =  -2169.38639579     A.U. after    8 cycles
 SCF Done:  E(RB3LYP) =  -2169.38639594     A.U. after    7 cycles
 Optimization completed.
    -- Stationary point found.

                         Standard orientation:
 ---------------------------------------------------------------------
 Center     Atomic      Atomic             Coordinates (Angstroms)
 Number     Number       Type             X           Y           Z
 ---------------------------------------------------------------------
      1          6           0        6.068099    1.637581    0.064843
      2          6           0        4.689267    1.420380    0.052939
      3          6           0        4.140207    0.125973   -0.023230
      4          6           0        4.966912   -0.982332   -0.084881
      5          6           0        6.353680   -0.763196   -0.059027
      6          6           0        6.904898    0.517738    0.003130
      7          6           0        2.636564    0.247864   -0.035770
      8          6           0        2.415654    1.748837    0.043309
      9          7           0        3.645700    2.360745    0.095960
     10          6           0        3.821149    3.800181    0.175289
     11          6           0        1.212224    2.421426    0.059457
     12          6           0       -1.266306    2.409481    0.020740
     13          6           0       -0.043615    1.768521    0.006439
     14          6           0       -3.978886    3.729154    0.102951
     15          7           0       -3.709763    2.300377   -0.003724
     16          6           0       -2.500250    1.720425   -0.035777
     17          6           0       -2.694586    0.223224   -0.158433
     18          6           0       -4.193496    0.065590   -0.171729
     19          6           0       -4.759004    1.352432   -0.111857
     20          6           0       -6.137697    1.577217   -0.204989
     21          6           0       -6.926981    0.436940   -0.380675
     22          6           0       -6.398574   -0.829918   -0.078146
     23          6           0       -5.014915   -1.052883   -0.190353
     24         16           0       -7.523155   -2.271968    0.132467
     25         16           0        7.450758   -2.175018   -0.159138
     26          8           0        8.784645   -1.710813   -0.572893
     27          8           0        7.514636   -2.577530    1.456693
     28          8           0        6.765229   -3.295292   -0.839458
     29          8           0       -8.735207   -1.888410   -0.660878
     30          8           0       -6.719493   -3.417134   -0.409285
     31          8           0       -7.701077   -2.268627    1.621850
     32          1           0        6.500101    2.637294    0.110212
     33          1           0        4.573169   -1.996480   -0.164387
     34          1           0        7.988748    0.634361   -0.007253
     35          1           0        2.166774   -0.269080    0.817122
     36          1           0        2.190492   -0.172378   -0.952091
     37          1           0        4.888018    4.039165    0.238102
     38          1           0        3.401545    4.293245   -0.716602
     39          1           0        3.319621    4.201034    1.070594
     40          1           0        1.217119    3.511919    0.115798
     41          1           0       -1.277249    3.500314    0.070062
     42          1           0       -0.040360    0.675599   -0.050168
     43          1           0       -4.165919    4.159976   -0.893200
     44          1           0       -4.870354    3.873455    0.726925
     45          1           0       -3.134545    4.243716    0.574346
     46          1           0       -2.214365   -0.304219    0.682101
     47          1           0       -2.222143   -0.148119   -1.083705
     48          1           0       -6.563692    2.579792   -0.273889
     49          1           0       -8.008038    0.512209   -0.516296
     50          1           0       -4.646091   -2.080313   -0.177867
     51          1           0        7.468025   -3.552925    1.477685
 ---------------------------------------------------------------------

 The electronic state is 1-A.
 Alpha  occ. eigenvalues --  -89.14986 -89.01760 -19.21131 -19.16716 -19.16600
 Alpha  occ. eigenvalues --  -19.02883 -19.02882 -19.02658 -14.45867 -14.45081
 Alpha  occ. eigenvalues --  -10.30997 -10.30852 -10.29679 -10.29234 -10.28544
 Alpha  occ. eigenvalues --  -10.26971 -10.26871 -10.26596 -10.25964 -10.25829
 Alpha  occ. eigenvalues --  -10.25652 -10.25490 -10.25216 -10.25061 -10.24943
 Alpha  occ. eigenvalues --  -10.24571 -10.21956 -10.21365 -10.19576 -10.19294
 Alpha  occ. eigenvalues --  -10.18957  -8.18146  -8.04597  -6.14569  -6.14415
 Alpha  occ. eigenvalues --   -6.14275  -6.00927  -6.00903  -6.00889  -1.15825
 Alpha  occ. eigenvalues --   -1.05927  -1.05559  -1.05288  -1.03122  -1.01665
 Alpha  occ. eigenvalues --   -0.92303  -0.88763  -0.88429  -0.88128  -0.87790
 Alpha  occ. eigenvalues --   -0.86793  -0.84731  -0.82710  -0.80967  -0.78229
 Alpha  occ. eigenvalues --   -0.77206  -0.76482  -0.74877  -0.73546  -0.71579
 Alpha  occ. eigenvalues --   -0.68239  -0.66380  -0.65055  -0.63048  -0.62252
 Alpha  occ. eigenvalues --   -0.60781  -0.59973  -0.58657  -0.57238  -0.56720
 Alpha  occ. eigenvalues --   -0.54781  -0.54476  -0.54133  -0.54003  -0.53292
 Alpha  occ. eigenvalues --   -0.52117  -0.51421  -0.50909  -0.49759  -0.49080
 Alpha  occ. eigenvalues --   -0.48583  -0.48416  -0.48217  -0.47464  -0.47113
 Alpha  occ. eigenvalues --   -0.46513  -0.46097  -0.45480  -0.45214  -0.44462
 Alpha  occ. eigenvalues --   -0.44066  -0.43484  -0.43311  -0.42048  -0.41349
 Alpha  occ. eigenvalues --   -0.40931  -0.40643  -0.40473  -0.39187  -0.38620
 Alpha  occ. eigenvalues --   -0.38129  -0.36695  -0.36489  -0.36211  -0.35317
 Alpha  occ. eigenvalues --   -0.34675  -0.34199  -0.34127  -0.32156  -0.31405
 Alpha  occ. eigenvalues --   -0.31153  -0.27207  -0.26378  -0.24162  -0.23673
 Alpha  occ. eigenvalues --   -0.23609  -0.20919  -0.20527  -0.19759  -0.16542
 Alpha virt. eigenvalues --   -0.13707  -0.07385  -0.07247  -0.03808  -0.02049
 Alpha virt. eigenvalues --   -0.00520  -0.00090   0.00584   0.01147   0.01544
 Alpha virt. eigenvalues --    0.02570   0.03299   0.03923   0.04548   0.05186

 Mulliken atomic charges:
              1
     1  C   -0.003279
     2  C    0.246093
     3  C   -0.139507
     4  C    0.051246
     5  C   -0.250453
     6  C    0.111664
     7  C    0.158312
     8  C    0.066814
     9  N   -0.300282
    10  C    0.076184
    11  C   -0.060309
    12  C   -0.040664
    13  C    0.061020
    14  C    0.069061
    15  N   -0.249335
    16  C    0.063718
    17  C    0.147353
    18  C   -0.116342
    19  C    0.202032
    20  C   -0.011918
    21  C    0.095208
    22  C   -0.242505
    23  C    0.039651
    24  S    0.989680
    25  S    0.995308
    26  O   -0.410035
    27  O   -0.324479
    28  O   -0.437710
    29  O   -0.517461
    30  O   -0.521772
    31  O   -0.518093
    32  H   -0.005872
    33  H   -0.014429
    34  H    0.004624
    35  H    0.080748
    36  H    0.081798
    37  H    0.055035
    38  H    0.058298
    39  H    0.058664
    40  H   -0.032063
    41  H   -0.025549
    42  H   -0.009021
    43  H    0.067283
    44  H    0.074880
    45  H    0.058205
    46  H    0.080519
    47  H    0.080460
    48  H   -0.024610
    49  H    0.006341
    50  H   -0.015633
    51  H    0.191119
 Sum of Mulliken atomic charges =   0.00000

 Dipole moment (field-independent basis, Debye):
    X=             21.7617    Y=             18.6977    Z=              0.7660  Tot=             28.7013
 Quadrupole moment (field-independent basis, Debye-Ang):
   XX=           -386.2497   YY=           -179.0592   ZZ=           -202.6168
   XY=            -67.3123   XZ=             19.9151   YZ=             -4.7094

 Normal termination of Gaussian 09 at Fri Mar 20 12:14:24 2015.
