 Gaussian 09, Revision B.01,
 Gaussian 09:  EM64L-G09RevB.01 12-Aug-2010

 ------------------------------------------------------
 # opt=modredundant B3LYP/cc-pVDZ Geom=PrintInputOrient
 ------------------------------------------------------

 -------------------------------
 CY3 Dihedral Scan at MP2/6-31G*
 -------------------------------
 Symbolic Z-matrix:
 Charge =  0 Multiplicity = 1

 SCF Done:  E(RB3LYP) =  -2169.39489223     A.U. after   31 cycles
 SCF Done:  E(RB3LYP) =  -2169.39489902     A.U. after    8 cycles
 SCF Done:  E(RB3LYP) =  -2169.39489943     A.U. after    8 cycles
 Optimization completed.
    -- Stationary point found.
 SCF Done:  E(RB3LYP) =  -2169.39190746     A.U. after   23 cycles
 SCF Done:  E(RB3LYP) =  -2169.39174914     A.U. after   11 cycles
 SCF Done:  E(RB3LYP) =  -2169.39213297     A.U. after   12 cycles
 SCF Done:  E(RB3LYP) =  -2169.39214897     A.U. after   10 cycles
 SCF Done:  E(RB3LYP) =  -2169.39215365     A.U. after   10 cycles
 SCF Done:  E(RB3LYP) =  -2169.39215668     A.U. after   10 cycles
 SCF Done:  E(RB3LYP) =  -2169.39215823     A.U. after   10 cycles
 Optimization completed.
    -- Stationary point found.
 SCF Done:  E(RB3LYP) =  -2169.38307620     A.U. after   11 cycles
 SCF Done:  E(RB3LYP) =  -2169.38367327     A.U. after   13 cycles
 SCF Done:  E(RB3LYP) =  -2169.38368149     A.U. after   12 cycles
 SCF Done:  E(RB3LYP) =  -2169.38368497     A.U. after   10 cycles
 SCF Done:  E(RB3LYP) =  -2169.38368518     A.U. after    7 cycles
 SCF Done:  E(RB3LYP) =  -2169.38368525     A.U. after    6 cycles
 SCF Done:  E(RB3LYP) =  -2169.38368531     A.U. after    6 cycles
 SCF Done:  E(RB3LYP) =  -2169.38368538     A.U. after    7 cycles
 SCF Done:  E(RB3LYP) =  -2169.38368549     A.U. after    7 cycles
 SCF Done:  E(RB3LYP) =  -2169.38368556     A.U. after    7 cycles
 Optimization completed.
    -- Stationary point found.

                         Standard orientation:
 ---------------------------------------------------------------------
 Center     Atomic      Atomic             Coordinates (Angstroms)
 Number     Number       Type             X           Y           Z
 ---------------------------------------------------------------------
      1          6           0       -6.072383    1.625833   -0.163018
      2          6           0       -4.692997    1.412843   -0.065021
      3          6           0       -4.133976    0.116676   -0.059167
      4          6           0       -4.955454   -0.999224   -0.010724
      5          6           0       -6.338064   -0.755372    0.076560
      6          6           0       -6.871559    0.482174   -0.293359
      7          6           0       -2.631313    0.250517   -0.048407
      8          6           0       -2.421795    1.754867   -0.006197
      9          7           0       -3.656576    2.359072   -0.001414
     10          6           0       -3.848699    3.798304    0.032552
     11          6           0       -1.222713    2.435301    0.013785
     12          6           0        1.255824    2.437186    0.032536
     13          6           0        0.037313    1.788599    0.011884
     14          6           0        3.996338    3.757748    0.107130
     15          7           0        3.704366    2.331207    0.054516
     16          6           0        2.493630    1.752882    0.024759
     17          6           0        2.687449    0.250598   -0.024107
     18          6           0        4.185941    0.091047   -0.019226
     19          6           0        4.751814    1.374975    0.025978
     20          6           0        6.131000    1.594624    0.024428
     21          6           0        6.946666    0.461323   -0.014089
     22          6           0        6.395289   -0.830056   -0.042342
     23          6           0        5.004309   -1.025351   -0.060986
     24         16           0        7.501561   -2.302201   -0.016661
     25         16           0       -7.443566   -2.161896    0.197244
     26          8           0       -8.820356   -1.664937    0.354810
     27          8           0       -7.275806   -2.785624   -1.342189
     28          8           0       -6.863817   -3.164109    1.116667
     29          8           0        7.652853   -2.521885    1.459946
     30          8           0        6.693246   -3.341811   -0.734634
     31          8           0        8.732111   -1.821249   -0.722521
     32          1           0       -6.503971    2.619413   -0.283569
     33          1           0       -4.557743   -2.009890    0.090516
     34          1           0       -7.952331    0.577672   -0.410494
     35          1           0       -2.166434   -0.187094   -0.947472
     36          1           0       -2.171879   -0.242194    0.823853
     37          1           0       -4.911046    4.023831    0.176035
     38          1           0       -3.286969    4.236358    0.871952
     39          1           0       -3.507502    4.265842   -0.905905
     40          1           0       -1.234776    3.527089    0.028791
     41          1           0        1.257231    3.528857    0.052698
     42          1           0        0.040892    0.694495   -0.007898
     43          1           0        4.648725    3.960130    0.968949
     44          1           0        4.521487    4.060756   -0.811284
     45          1           0        3.076164    4.340073    0.209296
     46          1           0        2.217060   -0.170133   -0.928390
     47          1           0        2.204983   -0.230168    0.843253
     48          1           0        6.561946    2.597286    0.041898
     49          1           0        8.034281    0.548421   -0.039718
     50          1           0        4.625045   -2.047453   -0.121493
     51          1           0       -7.283179   -3.755728   -1.226504
 ---------------------------------------------------------------------

 The electronic state is 1-A.
 Alpha  occ. eigenvalues --  -89.14832 -89.01659 -19.21118 -19.16580 -19.16559
 Alpha  occ. eigenvalues --  -19.02724 -19.02700 -19.02622 -14.45972 -14.45166
 Alpha  occ. eigenvalues --  -10.31089 -10.31077 -10.29771 -10.29292 -10.28628
 Alpha  occ. eigenvalues --  -10.27026 -10.26962 -10.26641 -10.26073 -10.26010
 Alpha  occ. eigenvalues --  -10.25776 -10.25616 -10.25202 -10.25137 -10.25036
 Alpha  occ. eigenvalues --  -10.24644 -10.21971 -10.21306 -10.19479 -10.19234
 Alpha  occ. eigenvalues --  -10.18785  -8.18010  -8.04494  -6.14436  -6.14274
 Alpha  occ. eigenvalues --   -6.14135  -6.00824  -6.00797  -6.00789  -1.15695
 Alpha  occ. eigenvalues --   -1.05997  -1.05662  -1.05225  -1.03017  -1.01555
 Alpha  occ. eigenvalues --   -0.92435  -0.88862  -0.88300  -0.88025  -0.87787
 Alpha  occ. eigenvalues --   -0.86880  -0.84785  -0.82729  -0.81016  -0.78223
 Alpha  occ. eigenvalues --   -0.77248  -0.76543  -0.74932  -0.73560  -0.71567
 Alpha  occ. eigenvalues --   -0.68280  -0.66346  -0.65049  -0.63060  -0.62350
 Alpha  occ. eigenvalues --   -0.60847  -0.60055  -0.58658  -0.57344  -0.56805
 Alpha  occ. eigenvalues --   -0.54815  -0.54500  -0.54182  -0.53892  -0.53341
 Alpha  occ. eigenvalues --   -0.52140  -0.51368  -0.51054  -0.49824  -0.49009
 Alpha  occ. eigenvalues --   -0.48670  -0.48495  -0.48207  -0.47511  -0.47204
 Alpha  occ. eigenvalues --   -0.46698  -0.46083  -0.45471  -0.45296  -0.44506
 Alpha  occ. eigenvalues --   -0.44052  -0.43499  -0.43329  -0.42089  -0.41396
 Alpha  occ. eigenvalues --   -0.41030  -0.40806  -0.40482  -0.39189  -0.38420
 Alpha  occ. eigenvalues --   -0.38223  -0.36678  -0.36251  -0.36173  -0.35248
 Alpha  occ. eigenvalues --   -0.34655  -0.34078  -0.33906  -0.32112  -0.31286
 Alpha  occ. eigenvalues --   -0.31146  -0.27302  -0.26608  -0.24207  -0.23595
 Alpha  occ. eigenvalues --   -0.23488  -0.20794  -0.20549  -0.19589  -0.16428
 Alpha virt. eigenvalues --   -0.13774  -0.07904  -0.07472  -0.03926  -0.01903
 Alpha virt. eigenvalues --   -0.00215  -0.00144   0.00446   0.01082   0.01483
 Alpha virt. eigenvalues --    0.02446   0.03394   0.03891   0.04398   0.04919

 Mulliken atomic charges:
              1
     1  C   -0.015313
     2  C    0.238632
     3  C   -0.149968
     4  C    0.069439
     5  C   -0.250361
     6  C    0.110469
     7  C    0.154515
     8  C    0.067631
     9  N   -0.296395
    10  C    0.075057
    11  C   -0.058902
    12  C   -0.038346
    13  C    0.061878
    14  C    0.072895
    15  N   -0.251786
    16  C    0.058885
    17  C    0.149407
    18  C   -0.112177
    19  C    0.214184
    20  C   -0.008450
    21  C    0.108441
    22  C   -0.242598
    23  C    0.042197
    24  S    0.986016
    25  S    0.986142
    26  O   -0.412750
    27  O   -0.328351
    28  O   -0.438721
    29  O   -0.517643
    30  O   -0.525669
    31  O   -0.520495
    32  H   -0.001228
    33  H   -0.006684
    34  H    0.020136
    35  H    0.081023
    36  H    0.081140
    37  H    0.056652
    38  H    0.060015
    39  H    0.057245
    40  H   -0.031609
    41  H   -0.023431
    42  H   -0.008629
    43  H    0.073116
    44  H    0.071260
    45  H    0.054216
    46  H    0.081054
    47  H    0.081867
    48  H   -0.032213
    49  H   -0.006733
    50  H   -0.026571
    51  H    0.191509
 Sum of Mulliken atomic charges =   0.00000

 Dipole moment (field-independent basis, Debye):
    X=            -21.7119    Y=             18.8706    Z=             -1.6114  Tot=             28.8115
 Quadrupole moment (field-independent basis, Debye-Ang):
   XX=           -388.1194   YY=           -177.4111   ZZ=           -203.8511
   XY=             69.5460   XZ=             12.6134   YZ=              7.0759

 Normal termination of Gaussian 09 at Thu Mar 19 06:29:04 2015.
