 Gaussian 09, Revision B.01,
 Gaussian 09:  EM64L-G09RevB.01 12-Aug-2010

 ------------------------------------------------------
 # opt=modredundant B3LYP/cc-pVDZ Geom=PrintInputOrient
 ------------------------------------------------------

 -------------------------------
 CY3 Dihedral Scan at MP2/6-31G*
 -------------------------------
 Symbolic Z-matrix:
 Charge =  0 Multiplicity = 1

 SCF Done:  E(RB3LYP) =  -2169.39489223     A.U. after   31 cycles
 SCF Done:  E(RB3LYP) =  -2169.39489903     A.U. after    8 cycles
 SCF Done:  E(RB3LYP) =  -2169.39489944     A.U. after    8 cycles
 Optimization completed.
    -- Stationary point found.
 SCF Done:  E(RB3LYP) =  -2169.39115066     A.U. after   19 cycles
 SCF Done:  E(RB3LYP) =  -2169.39117953     A.U. after    9 cycles
 SCF Done:  E(RB3LYP) =  -2169.39268264     A.U. after   16 cycles
 SCF Done:  E(RB3LYP) =  -2169.39302522     A.U. after   13 cycles
 SCF Done:  E(RB3LYP) =  -2169.39309287     A.U. after   10 cycles
 SCF Done:  E(RB3LYP) =  -2169.39312475     A.U. after   10 cycles
 SCF Done:  E(RB3LYP) =  -2169.39315077     A.U. after   10 cycles
 SCF Done:  E(RB3LYP) =  -2169.39323663     A.U. after    7 cycles
 Optimization completed.
    -- Stationary point found.
 SCF Done:  E(RB3LYP) =  -2169.38551186     A.U. after   18 cycles
 SCF Done:  E(RB3LYP) =  -2169.38782922     A.U. after   17 cycles
 SCF Done:  E(RB3LYP) =  -2169.38802494     A.U. after   16 cycles
 SCF Done:  E(RB3LYP) =  -2169.38803775     A.U. after   12 cycles
 SCF Done:  E(RB3LYP) =  -2169.38804011     A.U. after   10 cycles
 SCF Done:  E(RB3LYP) =  -2169.38804059     A.U. after   10 cycles
 SCF Done:  E(RB3LYP) =  -2169.38804064     A.U. after    7 cycles
 SCF Done:  E(RB3LYP) =  -2169.38804068     A.U. after    7 cycles
 SCF Done:  E(RB3LYP) =  -2169.38804067     A.U. after    7 cycles
 Optimization completed.
    -- Stationary point found.

                         Standard orientation:
 ---------------------------------------------------------------------
 Center     Atomic      Atomic             Coordinates (Angstroms)
 Number     Number       Type             X           Y           Z
 ---------------------------------------------------------------------
      1          6           0        5.971650    1.583873    0.607692
      2          6           0        4.614779    1.388828    0.344879
      3          6           0        4.112242    0.149538   -0.095941
      4          6           0        4.964379   -0.925361   -0.280460
      5          6           0        6.327198   -0.731633   -0.002831
      6          6           0        6.833769    0.497068    0.423517
      7          6           0        2.623806    0.285746   -0.298915
      8          6           0        2.359618    1.733151    0.078227
      9          7           0        3.554104    2.306412    0.442043
     10          6           0        3.682897    3.688753    0.869184
     11          6           0        1.149862    2.396562    0.070275
     12          6           0       -1.304200    2.402671   -0.281664
     13          6           0       -0.069229    1.782265   -0.302192
     14          6           0       -3.955411    3.757514   -0.317186
     15          7           0       -3.718609    2.329817   -0.483930
     16          6           0       -2.510999    1.747216   -0.619503
     17          6           0       -2.736670    0.257068   -0.774283
     18          6           0       -4.181135    0.087703   -0.372780
     19          6           0       -4.749973    1.372180   -0.308799
     20          6           0       -6.104749    1.582429   -0.040169
     21          6           0       -6.888921    0.445315    0.167443
     22          6           0       -6.335865   -0.843503    0.092936
     23          6           0       -4.971604   -1.032982   -0.186158
     24         16           0       -7.411244   -2.319099    0.326372
     25         16           0        7.460567   -2.096494   -0.249480
     26          8           0        8.832106   -1.566745   -0.314493
     27          8           0        7.265846   -2.870735    1.212679
     28          8           0        6.925257   -3.013316   -1.279341
     29          8           0       -7.932539   -2.514011   -1.067855
     30          8           0       -6.448304   -3.367785    0.798070
     31          8           0       -8.423157   -1.855591    1.328317
     32          1           0        6.369677    2.543570    0.937441
     33          1           0        4.609051   -1.892257   -0.639231
     34          1           0        7.904381    0.600381    0.600910
     35          1           0        2.048713   -0.402636    0.341917
     36          1           0        2.322559    0.084251   -1.340043
     37          1           0        4.724753    3.897141    1.134284
     38          1           0        3.380648    4.375233    0.061800
     39          1           0        3.052197    3.879849    1.751973
     40          1           0        1.121620    3.446251    0.369960
     41          1           0       -1.351661    3.453823    0.011131
     42          1           0       -0.031726    0.733661   -0.613347
     43          1           0       -4.917873    4.012917   -0.778655
     44          1           0       -3.991513    4.023572    0.751668
     45          1           0       -3.165798    4.330375   -0.817174
     46          1           0       -2.028805   -0.328703   -0.171401
     47          1           0       -2.587401   -0.038072   -1.829810
     48          1           0       -6.537498    2.581820    0.033065
     49          1           0       -7.947679    0.530169    0.418108
     50          1           0       -4.585881   -2.054112   -0.213137
     51          1           0        7.232266   -3.822286    0.994841
 ---------------------------------------------------------------------

 The electronic state is 1-A.
 Alpha  occ. eigenvalues --  -89.15036 -89.01729 -19.21177 -19.16757 -19.16653
 Alpha  occ. eigenvalues --  -19.02807 -19.02756 -19.02751 -14.45516 -14.45220
 Alpha  occ. eigenvalues --  -10.31117 -10.30740 -10.29751 -10.29305 -10.28418
 Alpha  occ. eigenvalues --  -10.27044 -10.26924 -10.26662 -10.26046 -10.25903
 Alpha  occ. eigenvalues --  -10.25701 -10.25563 -10.25238 -10.25048 -10.24977
 Alpha  occ. eigenvalues --  -10.24680 -10.21954 -10.21308 -10.19477 -10.19269
 Alpha  occ. eigenvalues --  -10.18841  -8.18196  -8.04567  -6.14619  -6.14464
 Alpha  occ. eigenvalues --   -6.14324  -6.00896  -6.00870  -6.00862  -1.15876
 Alpha  occ. eigenvalues --   -1.06043  -1.05348  -1.05340  -1.03166  -1.01633
 Alpha  occ. eigenvalues --   -0.92377  -0.88786  -0.88373  -0.88109  -0.87707
 Alpha  occ. eigenvalues --   -0.86795  -0.84707  -0.82725  -0.80984  -0.78253
 Alpha  occ. eigenvalues --   -0.77186  -0.76492  -0.74776  -0.73519  -0.71648
 Alpha  occ. eigenvalues --   -0.68305  -0.66441  -0.65064  -0.63025  -0.62264
 Alpha  occ. eigenvalues --   -0.60827  -0.59962  -0.58720  -0.57298  -0.56746
 Alpha  occ. eigenvalues --   -0.54842  -0.54522  -0.54222  -0.53978  -0.53159
 Alpha  occ. eigenvalues --   -0.52059  -0.51464  -0.50974  -0.49836  -0.49116
 Alpha  occ. eigenvalues --   -0.48507  -0.48274  -0.48168  -0.47492  -0.47150
 Alpha  occ. eigenvalues --   -0.46480  -0.46139  -0.45527  -0.45260  -0.44523
 Alpha  occ. eigenvalues --   -0.43966  -0.43554  -0.43378  -0.42048  -0.41506
 Alpha  occ. eigenvalues --   -0.40937  -0.40711  -0.40363  -0.39125  -0.38408
 Alpha  occ. eigenvalues --   -0.38244  -0.36651  -0.36296  -0.36224  -0.35267
 Alpha  occ. eigenvalues --   -0.34645  -0.34237  -0.34166  -0.32214  -0.31466
 Alpha  occ. eigenvalues --   -0.31204  -0.27329  -0.26580  -0.24203  -0.23674
 Alpha  occ. eigenvalues --   -0.23529  -0.20875  -0.20595  -0.19617  -0.16507
 Alpha virt. eigenvalues --   -0.13984  -0.07483  -0.07323  -0.03929  -0.01911
 Alpha virt. eigenvalues --   -0.00332  -0.00122   0.00598   0.01145   0.01629
 Alpha virt. eigenvalues --    0.02351   0.03241   0.03944   0.04615   0.05145

 Mulliken atomic charges:
              1
     1  C   -0.002675
     2  C    0.245751
     3  C   -0.139749
     4  C    0.052617
     5  C   -0.250407
     6  C    0.111465
     7  C    0.158372
     8  C    0.066169
     9  N   -0.299139
    10  C    0.075536
    11  C   -0.060205
    12  C   -0.031368
    13  C    0.063485
    14  C    0.074861
    15  N   -0.243135
    16  C    0.052651
    17  C    0.137125
    18  C   -0.101697
    19  C    0.191596
    20  C    0.003067
    21  C    0.111474
    22  C   -0.243069
    23  C    0.047674
    24  S    0.985830
    25  S    0.995754
    26  O   -0.410026
    27  O   -0.323992
    28  O   -0.437959
    29  O   -0.515925
    30  O   -0.525324
    31  O   -0.520227
    32  H   -0.005409
    33  H   -0.014799
    34  H    0.005123
    35  H    0.082130
    36  H    0.081812
    37  H    0.055442
    38  H    0.058430
    39  H    0.060025
    40  H   -0.030294
    41  H   -0.023613
    42  H   -0.008200
    43  H    0.073021
    44  H    0.062917
    45  H    0.056876
    46  H    0.063078
    47  H    0.083417
    48  H   -0.029077
    49  H   -0.006895
    50  H   -0.024016
    51  H    0.191504
 Sum of Mulliken atomic charges =   0.00000

 Dipole moment (field-independent basis, Debye):
    X=             21.2696    Y=             18.5104    Z=             -0.1997  Tot=             28.1970
 Quadrupole moment (field-independent basis, Debye-Ang):
   XX=           -385.0475   YY=           -178.1424   ZZ=           -202.4492
   XY=            -70.6701   XZ=             26.9269   YZ=              2.2376

 Normal termination of Gaussian 09 at Wed Mar 18 14:23:20 2015.
