 Gaussian 09, Revision B.01,
 Gaussian 09:  EM64L-G09RevB.01 12-Aug-2010

 ------------------------------------------------------
 # opt=modredundant B3LYP/cc-pVDZ Geom=PrintInputOrient
 ------------------------------------------------------

 -------------------------------
 CY3 Dihedral Scan at MP2/6-31G*
 -------------------------------
 Symbolic Z-matrix:
 Charge =  0 Multiplicity = 1

 SCF Done:  E(RB3LYP) =  -2169.39489223     A.U. after   31 cycles
 SCF Done:  E(RB3LYP) =  -2169.39489903     A.U. after    8 cycles
 SCF Done:  E(RB3LYP) =  -2169.39489944     A.U. after    8 cycles
 Optimization completed.
    -- Stationary point found.
 SCF Done:  E(RB3LYP) =  -2169.39185075     A.U. after   24 cycles
 SCF Done:  E(RB3LYP) =  -2169.39188428     A.U. after   10 cycles
 SCF Done:  E(RB3LYP) =  -2169.39228095     A.U. after   12 cycles
 SCF Done:  E(RB3LYP) =  -2169.39232868     A.U. after   10 cycles
 SCF Done:  E(RB3LYP) =  -2169.39235015     A.U. after   10 cycles
 SCF Done:  E(RB3LYP) =  -2169.39236725     A.U. after   10 cycles
 SCF Done:  E(RB3LYP) =  -2169.39238629     A.U. after   10 cycles
 Optimization completed.
    -- Stationary point found.
 SCF Done:  E(RB3LYP) =  -2169.38454855     A.U. after   12 cycles
 SCF Done:  E(RB3LYP) =  -2169.38455306     A.U. after   10 cycles
 SCF Done:  E(RB3LYP) =  -2169.38455459     A.U. after   10 cycles
 SCF Done:  E(RB3LYP) =  -2169.38455576     A.U. after   10 cycles
 SCF Done:  E(RB3LYP) =  -2169.38455629     A.U. after    8 cycles
 SCF Done:  E(RB3LYP) =  -2169.38455677     A.U. after    8 cycles
 SCF Done:  E(RB3LYP) =  -2169.38455718     A.U. after    8 cycles
 SCF Done:  E(RB3LYP) =  -2169.38455792     A.U. after   10 cycles
 SCF Done:  E(RB3LYP) =  -2169.38455868     A.U. after   10 cycles
 SCF Done:  E(RB3LYP) =  -2169.38455876     A.U. after    7 cycles
 Optimization completed.
    -- Stationary point found.

                         Standard orientation:
 ---------------------------------------------------------------------
 Center     Atomic      Atomic             Coordinates (Angstroms)
 Number     Number       Type             X           Y           Z
 ---------------------------------------------------------------------
      1          6           0       -6.036871    1.610051   -0.409475
      2          6           0       -4.690853    1.402441   -0.096270
      3          6           0       -4.131312    0.109340   -0.146624
      4          6           0       -4.950267   -0.978798    0.111515
      5          6           0       -6.335860   -0.765423   -0.019482
      6          6           0       -6.874154    0.487191   -0.328710
      7          6           0       -2.628740    0.244842   -0.073179
      8          6           0       -2.421898    1.749014   -0.004375
      9          7           0       -3.658914    2.349922   -0.007382
     10          6           0       -3.867141    3.786442    0.036614
     11          6           0       -1.224061    2.430470    0.027581
     12          6           0        1.254396    2.433777    0.062070
     13          6           0        0.036640    1.784482    0.032451
     14          6           0        3.992502    3.755454    0.166908
     15          7           0        3.702787    2.329273    0.094013
     16          6           0        2.492837    1.750267    0.052919
     17          6           0        2.688139    0.248972   -0.014552
     18          6           0        4.186787    0.090927   -0.010508
     19          6           0        4.751323    1.374725    0.053358
     20          6           0        6.130287    1.595801    0.055243
     21          6           0        6.947137    0.464035    0.000381
     22          6           0        6.397118   -0.827385   -0.046788
     23          6           0        5.006304   -1.023861   -0.068171
     24         16           0        7.504643   -2.298771   -0.044514
     25         16           0       -7.445690   -2.147411    0.223404
     26          8           0       -8.820271   -1.639141    0.364716
     27          8           0       -7.295186   -2.863328   -1.274705
     28          8           0       -6.861295   -3.093466    1.198408
     29          8           0        7.653262   -2.544016    1.428346
     30          8           0        6.698358   -3.326254   -0.781938
     31          8           0        8.736088   -1.804811   -0.739678
     32          1           0       -6.457440    2.601502   -0.578096
     33          1           0       -4.559301   -1.980488    0.294422
     34          1           0       -7.949912    0.581155   -0.478563
     35          1           0       -2.134820   -0.175375   -0.965049
     36          1           0       -2.198058   -0.265138    0.803738
     37          1           0       -4.918744    3.993894    0.267216
     38          1           0       -3.247807    4.232575    0.828930
     39          1           0       -3.609456    4.258802   -0.926146
     40          1           0       -1.236859    3.522299    0.041399
     41          1           0        1.255170    3.525322    0.088337
     42          1           0        0.040989    0.690476    0.008758
     43          1           0        4.658441    3.943325    1.021464
     44          1           0        4.501698    4.076935   -0.754281
     45          1           0        3.072873    4.333315    0.296201
     46          1           0        2.218658   -0.160971   -0.924181
     47          1           0        2.205660   -0.243027    0.846563
     48          1           0        6.560225    2.598561    0.086605
     49          1           0        8.034657    0.552620   -0.024304
     50          1           0        4.627987   -2.045285   -0.143994
     51          1           0       -7.335848   -3.824407   -1.104294
 ---------------------------------------------------------------------

 The electronic state is 1-A.
 Alpha  occ. eigenvalues --  -89.14875 -89.01681 -19.21061 -19.16569 -19.16506
 Alpha  occ. eigenvalues --  -19.02746 -19.02723 -19.02647 -14.46009 -14.45148
 Alpha  occ. eigenvalues --  -10.31124 -10.31103 -10.29741 -10.29275 -10.28652
 Alpha  occ. eigenvalues --  -10.27004 -10.26988 -10.26528 -10.26039 -10.25972
 Alpha  occ. eigenvalues --  -10.25631 -10.25537 -10.25231 -10.25160 -10.25070
 Alpha  occ. eigenvalues --  -10.24677 -10.21998 -10.21333 -10.19505 -10.19258
 Alpha  occ. eigenvalues --  -10.18812  -8.18039  -8.04516  -6.14463  -6.14305
 Alpha  occ. eigenvalues --   -6.14168  -6.00846  -6.00820  -6.00811  -1.15697
 Alpha  occ. eigenvalues --   -1.06020  -1.05696  -1.05201  -1.02977  -1.01578
 Alpha  occ. eigenvalues --   -0.92366  -0.88889  -0.88323  -0.88049  -0.87814
 Alpha  occ. eigenvalues --   -0.86855  -0.84761  -0.82705  -0.80988  -0.78241
 Alpha  occ. eigenvalues --   -0.77267  -0.76520  -0.74952  -0.73590  -0.71596
 Alpha  occ. eigenvalues --   -0.68296  -0.66321  -0.65083  -0.63048  -0.62368
 Alpha  occ. eigenvalues --   -0.60872  -0.60078  -0.58607  -0.57246  -0.56753
 Alpha  occ. eigenvalues --   -0.54838  -0.54639  -0.54111  -0.53900  -0.53370
 Alpha  occ. eigenvalues --   -0.52152  -0.51367  -0.50930  -0.49805  -0.48967
 Alpha  occ. eigenvalues --   -0.48691  -0.48518  -0.48187  -0.47458  -0.47192
 Alpha  occ. eigenvalues --   -0.46717  -0.46090  -0.45469  -0.45313  -0.44432
 Alpha  occ. eigenvalues --   -0.44073  -0.43537  -0.43180  -0.42113  -0.41434
 Alpha  occ. eigenvalues --   -0.41036  -0.40741  -0.40478  -0.39104  -0.38493
 Alpha  occ. eigenvalues --   -0.38249  -0.36669  -0.36272  -0.36153  -0.35359
 Alpha  occ. eigenvalues --   -0.34679  -0.34100  -0.34036  -0.31957  -0.31190
 Alpha  occ. eigenvalues --   -0.31057  -0.27337  -0.26634  -0.24250  -0.23617
 Alpha  occ. eigenvalues --   -0.23512  -0.20815  -0.20572  -0.19614  -0.16450
 Alpha virt. eigenvalues --   -0.13805  -0.07649  -0.07424  -0.03894  -0.01926
 Alpha virt. eigenvalues --   -0.00220  -0.00095   0.00469   0.01106   0.01478
 Alpha virt. eigenvalues --    0.02422   0.03384   0.03991   0.04437   0.04731

 Mulliken atomic charges:
              1
     1  C   -0.002541
     2  C    0.215183
     3  C   -0.128421
     4  C    0.081772
     5  C   -0.261086
     6  C    0.107451
     7  C    0.126245
     8  C    0.074108
     9  N   -0.285015
    10  C    0.075719
    11  C   -0.056164
    12  C   -0.038556
    13  C    0.062305
    14  C    0.072744
    15  N   -0.251531
    16  C    0.058871
    17  C    0.149479
    18  C   -0.112295
    19  C    0.214038
    20  C   -0.008285
    21  C    0.108361
    22  C   -0.242601
    23  C    0.042533
    24  S    0.986122
    25  S    0.991787
    26  O   -0.411896
    27  O   -0.324494
    28  O   -0.437607
    29  O   -0.517505
    30  O   -0.525540
    31  O   -0.520356
    32  H   -0.003834
    33  H   -0.002438
    34  H    0.008193
    35  H    0.078486
    36  H    0.078860
    37  H    0.057682
    38  H    0.060387
    39  H    0.055564
    40  H   -0.031091
    41  H   -0.023208
    42  H   -0.009184
    43  H    0.073325
    44  H    0.071177
    45  H    0.054459
    46  H    0.081102
    47  H    0.082078
    48  H   -0.032031
    49  H   -0.006643
    50  H   -0.026447
    51  H    0.190740
 Sum of Mulliken atomic charges =   0.00000

 Dipole moment (field-independent basis, Debye):
    X=            -21.6426    Y=             18.7749    Z=             -1.3251  Tot=             28.6819
 Quadrupole moment (field-independent basis, Debye-Ang):
   XX=           -387.9207   YY=           -176.6439   ZZ=           -204.1867
   XY=             70.4537   XZ=             13.6055   YZ=              6.2894

 Normal termination of Gaussian 09 at Sat Mar 21 01:09:02 2015.
