 Gaussian 09, Revision B.01,
 Gaussian 09:  EM64L-G09RevB.01 12-Aug-2010

 ------------------------------------------------------
 # opt=modredundant B3LYP/cc-pVDZ Geom=PrintInputOrient
 ------------------------------------------------------

 -------------------------------
 CY3 Dihedral Scan at MP2/6-31G*
 -------------------------------
 Symbolic Z-matrix:
 Charge =  0 Multiplicity = 1

 SCF Done:  E(RB3LYP) =  -2169.39489223     A.U. after   31 cycles
 SCF Done:  E(RB3LYP) =  -2169.39489900     A.U. after    8 cycles
 SCF Done:  E(RB3LYP) =  -2169.39489941     A.U. after    8 cycles
 Optimization completed.
    -- Stationary point found.
 SCF Done:  E(RB3LYP) =  -2169.38900889     A.U. after   14 cycles
 SCF Done:  E(RB3LYP) =  -2169.38893538     A.U. after   10 cycles
 SCF Done:  E(RB3LYP) =  -2169.39218101     A.U. after   14 cycles
 SCF Done:  E(RB3LYP) =  -2169.39274205     A.U. after   15 cycles
 SCF Done:  E(RB3LYP) =  -2169.39282704     A.U. after   11 cycles
 SCF Done:  E(RB3LYP) =  -2169.39290736     A.U. after   11 cycles
 SCF Done:  E(RB3LYP) =  -2169.39301574     A.U. after   12 cycles
 Optimization completed.
    -- Stationary point found.
 SCF Done:  E(RB3LYP) =  -2169.38667544     A.U. after   12 cycles
 SCF Done:  E(RB3LYP) =  -2169.38667937     A.U. after   11 cycles
 SCF Done:  E(RB3LYP) =  -2169.38668169     A.U. after   10 cycles
 SCF Done:  E(RB3LYP) =  -2169.38668215     A.U. after   10 cycles
 SCF Done:  E(RB3LYP) =  -2169.38668242     A.U. after    8 cycles
 SCF Done:  E(RB3LYP) =  -2169.38668277     A.U. after    8 cycles
 SCF Done:  E(RB3LYP) =  -2169.38668317     A.U. after    8 cycles
 SCF Done:  E(RB3LYP) =  -2169.38668392     A.U. after   10 cycles
 SCF Done:  E(RB3LYP) =  -2169.38668425     A.U. after    8 cycles
 SCF Done:  E(RB3LYP) =  -2169.38668425     A.U. after    7 cycles
 Optimization completed.
    -- Stationary point found.

                         Standard orientation:
 ---------------------------------------------------------------------
 Center     Atomic      Atomic             Coordinates (Angstroms)
 Number     Number       Type             X           Y           Z
 ---------------------------------------------------------------------
      1          6           0        6.058689    1.605009   -0.088768
      2          6           0        4.705218    1.432483   -0.368758
      3          6           0        4.121372    0.150686   -0.484318
      4          6           0        4.891975   -0.985709   -0.329794
      5          6           0        6.251673   -0.808938   -0.014938
      6          6           0        6.837462    0.452287    0.087438
      7          6           0        2.691940    0.366951   -0.928303
      8          6           0        2.465048    1.799631   -0.484060
      9          7           0        3.703825    2.415824   -0.552753
     10          6           0        3.930527    3.825088   -0.287405
     11          6           0        1.285622    2.431166   -0.177026
     12          6           0       -1.171125    2.404325    0.132389
     13          6           0        0.019464    1.786804   -0.183370
     14          6           0       -3.855350    3.669524    0.801793
     15          7           0       -3.600858    2.282981    0.430706
     16          6           0       -2.416490    1.729092    0.132996
     17          6           0       -2.645007    0.267813   -0.193106
     18          6           0       -4.133175    0.101257   -0.026551
     19          6           0       -4.661655    1.344806    0.354012
     20          6           0       -6.020388    1.543436    0.612468
     21          6           0       -6.855018    0.434334    0.464530
     22          6           0       -6.343452   -0.812710    0.066816
     23          6           0       -4.970731   -0.992990   -0.168493
     24         16           0       -7.489254   -2.232109   -0.185556
     25         16           0        7.276931   -2.259003    0.216180
     26          8           0        8.690302   -1.862788    0.110339
     27          8           0        6.940175   -2.573239    1.817821
     28          8           0        6.722243   -3.394254   -0.553045
     29          8           0       -7.953880   -1.980041   -1.589801
     30          8           0       -6.595240   -3.423563   -0.012466
     31          8           0       -8.524870   -2.025803    0.876788
     32          1           0        6.512753    2.591747    0.004459
     33          1           0        4.481089   -1.989092   -0.449153
     34          1           0        7.902419    0.529351    0.307631
     35          1           0        1.974226   -0.346288   -0.502503
     36          1           0        2.616702    0.311864   -2.029540
     37          1           0        4.913098    4.112494   -0.684029
     38          1           0        3.168637    4.422024   -0.806543
     39          1           0        3.898515    4.055850    0.792346
     40          1           0        1.314057    3.486752    0.103506
     41          1           0       -1.147180    3.462688    0.399631
     42          1           0       -0.004923    0.727760   -0.455862
     43          1           0       -4.621057    4.085716    0.131385
     44          1           0       -4.230682    3.710868    1.835324
     45          1           0       -2.943726    4.268199    0.720559
     46          1           0       -2.065193   -0.375322    0.489742
     47          1           0       -2.301886    0.042432   -1.216743
     48          1           0       -6.419917    2.509756    0.925383
     49          1           0       -7.924522    0.503235    0.670271
     50          1           0       -4.620234   -1.990631   -0.440912
     51          1           0        6.824774   -3.541819    1.866990
 ---------------------------------------------------------------------

 The electronic state is 1-A.
 Alpha  occ. eigenvalues --  -89.14834 -89.01873 -19.20991 -19.16562 -19.16463
 Alpha  occ. eigenvalues --  -19.02950 -19.02905 -19.02856 -14.46394 -14.44371
 Alpha  occ. eigenvalues --  -10.31388 -10.30903 -10.29281 -10.28899 -10.28845
 Alpha  occ. eigenvalues --  -10.27213 -10.26761 -10.26429 -10.25755 -10.25650
 Alpha  occ. eigenvalues --  -10.25484 -10.25456 -10.25391 -10.25383 -10.25238
 Alpha  occ. eigenvalues --  -10.24955 -10.22262 -10.21567 -10.19677 -10.19535
 Alpha  occ. eigenvalues --  -10.19056  -8.17994  -8.04709  -6.14418  -6.14264
 Alpha  occ. eigenvalues --   -6.14121  -6.01039  -6.01012  -6.01003  -1.15681
 Alpha  occ. eigenvalues --   -1.06034  -1.05406  -1.05148  -1.02972  -1.01778
 Alpha  occ. eigenvalues --   -0.91985  -0.88950  -0.88519  -0.88252  -0.88061
 Alpha  occ. eigenvalues --   -0.86816  -0.84788  -0.82563  -0.80929  -0.78219
 Alpha  occ. eigenvalues --   -0.77416  -0.76208  -0.75067  -0.73705  -0.71443
 Alpha  occ. eigenvalues --   -0.68382  -0.66127  -0.64877  -0.63055  -0.62546
 Alpha  occ. eigenvalues --   -0.60791  -0.60305  -0.58385  -0.57204  -0.56859
 Alpha  occ. eigenvalues --   -0.55104  -0.54607  -0.54026  -0.53659  -0.53458
 Alpha  occ. eigenvalues --   -0.52360  -0.51283  -0.50586  -0.49391  -0.49091
 Alpha  occ. eigenvalues --   -0.48770  -0.48668  -0.48239  -0.47386  -0.46962
 Alpha  occ. eigenvalues --   -0.46943  -0.46273  -0.45536  -0.45265  -0.44365
 Alpha  occ. eigenvalues --   -0.44152  -0.43497  -0.42962  -0.42327  -0.41595
 Alpha  occ. eigenvalues --   -0.41128  -0.40542  -0.40067  -0.39051  -0.38488
 Alpha  occ. eigenvalues --   -0.38342  -0.36803  -0.36479  -0.36122  -0.35454
 Alpha  occ. eigenvalues --   -0.34882  -0.34041  -0.33912  -0.32055  -0.31275
 Alpha  occ. eigenvalues --   -0.30927  -0.27463  -0.26855  -0.24615  -0.23811
 Alpha  occ. eigenvalues --   -0.23707  -0.21040  -0.20731  -0.19826  -0.16639
 Alpha virt. eigenvalues --   -0.13948  -0.07458  -0.06990  -0.04146  -0.02115
 Alpha virt. eigenvalues --   -0.00481  -0.00006   0.00485   0.01130   0.01374
 Alpha virt. eigenvalues --    0.02159   0.03410   0.03642   0.04679   0.05008

 Mulliken atomic charges:
              1
     1  C    0.003648
     2  C    0.229859
     3  C   -0.115418
     4  C    0.048725
     5  C   -0.249573
     6  C    0.105045
     7  C    0.142650
     8  C    0.071321
     9  N   -0.296792
    10  C    0.073638
    11  C   -0.045211
    12  C   -0.037005
    13  C    0.064827
    14  C    0.072401
    15  N   -0.249690
    16  C    0.058548
    17  C    0.149785
    18  C   -0.110026
    19  C    0.213913
    20  C   -0.008739
    21  C    0.113444
    22  C   -0.242762
    23  C    0.037952
    24  S    0.986533
    25  S    0.995252
    26  O   -0.410423
    27  O   -0.324723
    28  O   -0.438657
    29  O   -0.516143
    30  O   -0.524156
    31  O   -0.519507
    32  H   -0.013365
    33  H   -0.011469
    34  H    0.005783
    35  H    0.052177
    36  H    0.083428
    37  H    0.059847
    38  H    0.056937
    39  H    0.049749
    40  H   -0.027866
    41  H   -0.021304
    42  H   -0.009784
    43  H    0.074237
    44  H    0.072640
    45  H    0.055237
    46  H    0.082808
    47  H    0.083612
    48  H   -0.031172
    49  H   -0.005954
    50  H   -0.025112
    51  H    0.190856
 Sum of Mulliken atomic charges =   0.00000

 Dipole moment (field-independent basis, Debye):
    X=             20.8859    Y=             18.8664    Z=              2.0446  Tot=             28.2195
 Quadrupole moment (field-independent basis, Debye-Ang):
   XX=           -390.7776   YY=           -180.3550   ZZ=           -198.9425
   XY=            -62.1227   XZ=             -7.4612   YZ=             -3.6966

 Normal termination of Gaussian 09 at Sat Mar 21 13:41:23 2015.
