 Gaussian 09, Revision B.01,
 Gaussian 09:  EM64L-G09RevB.01 12-Aug-2010

 ------------------------------------------------------
 # opt=modredundant B3LYP/cc-pVDZ Geom=PrintInputOrient
 ------------------------------------------------------

 -------------------------------
 CY3 Dihedral Scan at MP2/6-31G*
 -------------------------------
 Symbolic Z-matrix:
 Charge =  0 Multiplicity = 1

 SCF Done:  E(RB3LYP) =  -2169.39489223     A.U. after   31 cycles
 SCF Done:  E(RB3LYP) =  -2169.39489903     A.U. after    8 cycles
 SCF Done:  E(RB3LYP) =  -2169.39489944     A.U. after    8 cycles
 Optimization completed.
    -- Stationary point found.
 SCF Done:  E(RB3LYP) =  -2169.38944633     A.U. after   18 cycles
 SCF Done:  E(RB3LYP) =  -2169.38947962     A.U. after    8 cycles
 SCF Done:  E(RB3LYP) =  -2169.39077251     A.U. after   12 cycles
 SCF Done:  E(RB3LYP) =  -2169.39116362     A.U. after   12 cycles
 SCF Done:  E(RB3LYP) =  -2169.39121199     A.U. after   11 cycles
 SCF Done:  E(RB3LYP) =  -2169.39121902     A.U. after   10 cycles
 SCF Done:  E(RB3LYP) =  -2169.39122521     A.U. after   10 cycles
 SCF Done:  E(RB3LYP) =  -2169.39131167     A.U. after   10 cycles
 SCF Done:  E(RB3LYP) =  -2169.39131178     A.U. after    6 cycles
 Optimization completed.
    -- Stationary point found.
 SCF Done:  E(RB3LYP) =  -2169.37609335     A.U. after   18 cycles
 SCF Done:  E(RB3LYP) =  -2169.37923927     A.U. after   12 cycles
 SCF Done:  E(RB3LYP) =  -2169.37941156     A.U. after   12 cycles
 SCF Done:  E(RB3LYP) =  -2169.37942914     A.U. after   11 cycles
 SCF Done:  E(RB3LYP) =  -2169.37943414     A.U. after   11 cycles
 SCF Done:  E(RB3LYP) =  -2169.37943554     A.U. after   10 cycles
 SCF Done:  E(RB3LYP) =  -2169.37943600     A.U. after    8 cycles
 SCF Done:  E(RB3LYP) =  -2169.37943616     A.U. after    8 cycles
 Optimization completed.
    -- Stationary point found.

                         Standard orientation:
 ---------------------------------------------------------------------
 Center     Atomic      Atomic             Coordinates (Angstroms)
 Number     Number       Type             X           Y           Z
 ---------------------------------------------------------------------
      1          6           0        6.060763    1.630510   -0.209342
      2          6           0        4.683668    1.414529   -0.138356
      3          6           0        4.136794    0.120848   -0.039557
      4          6           0        4.964449   -0.988021   -0.005092
      5          6           0        6.350145   -0.768459   -0.061828
      6          6           0        6.898566    0.510246   -0.173222
      7          6           0        2.633657    0.242399   -0.001947
      8          6           0        2.411040    1.742747   -0.083292
      9          7           0        3.638591    2.354816   -0.159412
     10          6           0        3.811931    3.793970   -0.252507
     11          6           0        1.206177    2.414971   -0.083913
     12          6           0       -1.271486    2.400804   -0.000390
     13          6           0       -0.046142    1.761375   -0.001447
     14          6           0       -3.970826    3.732076   -0.015930
     15          7           0       -3.712550    2.302712    0.084231
     16          6           0       -2.500686    1.716349    0.118387
     17          6           0       -2.709689    0.216943    0.315120
     18          6           0       -4.188902    0.081987    0.032796
     19          6           0       -4.735153    1.344620    0.344408
     20          6           0       -6.105448    1.554377    0.490959
     21          6           0       -6.932044    0.428725    0.384216
     22          6           0       -6.403817   -0.828894    0.061225
     23          6           0       -5.014295   -1.021625   -0.070688
     24         16           0       -7.522847   -2.268885   -0.189067
     25         16           0        7.448711   -2.182808   -0.035417
     26          8           0        8.766021   -1.769877   -0.545367
     27          8           0        7.567067   -2.393184    1.613512
     28          8           0        6.745194   -3.374648   -0.556877
     29          8           0       -7.653800   -2.277873   -1.683439
     30          8           0       -6.727502   -3.405326    0.382584
     31          8           0       -8.758910   -1.886787    0.565726
     32          1           0        6.490653    2.628176   -0.298796
     33          1           0        4.571577   -2.004025    0.051743
     34          1           0        7.980770    0.623443   -0.239922
     35          1           0        2.201532   -0.174578    0.922525
     36          1           0        2.150687   -0.277423   -0.845674
     37          1           0        4.879622    4.036652   -0.271292
     38          1           0        3.345850    4.183015   -1.172155
     39          1           0        3.354509    4.294387    0.615893
     40          1           0        1.209230    3.504777   -0.151800
     41          1           0       -1.286163    3.490582   -0.075307
     42          1           0       -0.041333    0.669686    0.072304
     43          1           0       -4.964664    3.876283   -0.457633
     44          1           0       -3.943516    4.210038    0.976524
     45          1           0       -3.225855    4.202202   -0.669448
     46          1           0       -2.507573   -0.042775    1.369030
     47          1           0       -2.040585   -0.383497   -0.317936
     48          1           0       -6.526407    2.541576    0.693466
     49          1           0       -8.010811    0.499381    0.534621
     50          1           0       -4.642414   -2.035047   -0.234612
     51          1           0        7.532007   -3.359754    1.749765
 ---------------------------------------------------------------------

 The electronic state is 1-A.
 Alpha  occ. eigenvalues --  -89.15055 -89.01688 -19.21205 -19.16782 -19.16673
 Alpha  occ. eigenvalues --  -19.02760 -19.02754 -19.02639 -14.45546 -14.45255
 Alpha  occ. eigenvalues --  -10.31169 -10.30787 -10.29785 -10.29343 -10.28421
 Alpha  occ. eigenvalues --  -10.27076 -10.26991 -10.26694 -10.26075 -10.25926
 Alpha  occ. eigenvalues --  -10.25741 -10.25598 -10.25083 -10.25043 -10.24961
 Alpha  occ. eigenvalues --  -10.24688 -10.21762 -10.21354 -10.19567 -10.19184
 Alpha  occ. eigenvalues --  -10.18856  -8.18216  -8.04524  -6.14639  -6.14484
 Alpha  occ. eigenvalues --   -6.14345  -6.00854  -6.00828  -6.00818  -1.15895
 Alpha  occ. eigenvalues --   -1.06082  -1.05361  -1.05272  -1.03192  -1.01590
 Alpha  occ. eigenvalues --   -0.92412  -0.88806  -0.88340  -0.88052  -0.87706
 Alpha  occ. eigenvalues --   -0.86792  -0.84647  -0.82727  -0.81010  -0.78242
 Alpha  occ. eigenvalues --   -0.77169  -0.76496  -0.74783  -0.73435  -0.71607
 Alpha  occ. eigenvalues --   -0.68274  -0.66467  -0.65004  -0.62989  -0.62195
 Alpha  occ. eigenvalues --   -0.60833  -0.59847  -0.58738  -0.57296  -0.56742
 Alpha  occ. eigenvalues --   -0.54779  -0.54481  -0.54254  -0.53946  -0.53212
 Alpha  occ. eigenvalues --   -0.51999  -0.51499  -0.50995  -0.49866  -0.49153
 Alpha  occ. eigenvalues --   -0.48564  -0.48351  -0.48244  -0.47500  -0.47188
 Alpha  occ. eigenvalues --   -0.46380  -0.46055  -0.45563  -0.45358  -0.44549
 Alpha  occ. eigenvalues --   -0.44013  -0.43583  -0.43348  -0.41950  -0.41300
 Alpha  occ. eigenvalues --   -0.40948  -0.40727  -0.40163  -0.39189  -0.38660
 Alpha  occ. eigenvalues --   -0.37870  -0.36630  -0.36270  -0.36167  -0.35143
 Alpha  occ. eigenvalues --   -0.34468  -0.34257  -0.34164  -0.32217  -0.31500
 Alpha  occ. eigenvalues --   -0.31237  -0.27315  -0.26589  -0.24141  -0.23628
 Alpha  occ. eigenvalues --   -0.23509  -0.20843  -0.20558  -0.19604  -0.16458
 Alpha virt. eigenvalues --   -0.13841  -0.07465  -0.07342  -0.03938  -0.02001
 Alpha virt. eigenvalues --   -0.01227  -0.00128   0.00525   0.01155   0.01540
 Alpha virt. eigenvalues --    0.02530   0.03224   0.03871   0.04747   0.05219

 Mulliken atomic charges:
              1
     1  C   -0.002871
     2  C    0.245891
     3  C   -0.139120
     4  C    0.051873
     5  C   -0.250274
     6  C    0.111715
     7  C    0.158169
     8  C    0.068072
     9  N   -0.299645
    10  C    0.075924
    11  C   -0.060433
    12  C   -0.041367
    13  C    0.063582
    14  C    0.070041
    15  N   -0.231018
    16  C    0.105035
    17  C    0.096067
    18  C   -0.076543
    19  C    0.156519
    20  C   -0.021186
    21  C    0.103077
    22  C   -0.245386
    23  C    0.074347
    24  S    0.987272
    25  S    0.995446
    26  O   -0.409742
    27  O   -0.324743
    28  O   -0.436930
    29  O   -0.517702
    30  O   -0.525449
    31  O   -0.519710
    32  H   -0.005402
    33  H   -0.014042
    34  H    0.005012
    35  H    0.080614
    36  H    0.083750
    37  H    0.055427
    38  H    0.059374
    39  H    0.058935
    40  H   -0.031079
    41  H   -0.026883
    42  H   -0.011490
    43  H    0.073567
    44  H    0.062070
    45  H    0.061068
    46  H    0.086313
    47  H    0.057073
    48  H   -0.023240
    49  H   -0.005142
    50  H   -0.018006
    51  H    0.191171
 Sum of Mulliken atomic charges =   0.00000

 Dipole moment (field-independent basis, Debye):
    X=             22.1620    Y=             18.9109    Z=              2.8314  Tot=             29.2710
 Quadrupole moment (field-independent basis, Debye-Ang):
   XX=           -385.0548   YY=           -180.9868   ZZ=           -201.0387
   XY=            -66.0467   XZ=              0.6280   YZ=            -10.5313

 Normal termination of Gaussian 09 at Thu Mar 19 05:26:09 2015.
