 Gaussian 09, Revision B.01,
 Gaussian 09:  EM64L-G09RevB.01 12-Aug-2010

 ------------------------------------------------------
 # opt=modredundant B3LYP/cc-pVDZ Geom=PrintInputOrient
 ------------------------------------------------------

 -------------------------------
 CY3 Dihedral Scan at MP2/6-31G*
 -------------------------------
 Symbolic Z-matrix:
 Charge =  0 Multiplicity = 1

 SCF Done:  E(RB3LYP) =  -2169.39489223     A.U. after   31 cycles
 SCF Done:  E(RB3LYP) =  -2169.39489903     A.U. after    8 cycles
 SCF Done:  E(RB3LYP) =  -2169.39489944     A.U. after    8 cycles
 Optimization completed.
    -- Stationary point found.
 SCF Done:  E(RB3LYP) =  -2169.38923278     A.U. after   16 cycles
 SCF Done:  E(RB3LYP) =  -2169.39440312     A.U. after   16 cycles
 SCF Done:  E(RB3LYP) =  -2169.39476396     A.U. after   16 cycles
 SCF Done:  E(RB3LYP) =  -2169.39481461     A.U. after   12 cycles
 SCF Done:  E(RB3LYP) =  -2169.39482474     A.U. after   12 cycles
 SCF Done:  E(RB3LYP) =  -2169.39482577     A.U. after    8 cycles
 SCF Done:  E(RB3LYP) =  -2169.39482595     A.U. after    7 cycles
 Optimization completed.
 SCF Done:  E(RB3LYP) =  -2169.39480001     A.U. after    7 cycles
    -- Stationary point found.
 SCF Done:  E(RB3LYP) =  -2169.38873853     A.U. after   17 cycles
 SCF Done:  E(RB3LYP) =  -2169.39439395     A.U. after   16 cycles
 SCF Done:  E(RB3LYP) =  -2169.39466563     A.U. after   13 cycles
 SCF Done:  E(RB3LYP) =  -2169.39467159     A.U. after   12 cycles
 SCF Done:  E(RB3LYP) =  -2169.39467375     A.U. after   11 cycles
 SCF Done:  E(RB3LYP) =  -2169.39467408     A.U. after    9 cycles
 SCF Done:  E(RB3LYP) =  -2169.39467413     A.U. after    9 cycles
 SCF Done:  E(RB3LYP) =  -2169.39467412     A.U. after    6 cycles
 SCF Done:  E(RB3LYP) =  -2169.39467411     A.U. after    6 cycles
 Optimization completed.
    -- Stationary point found.

                         Standard orientation:
 ---------------------------------------------------------------------
 Center     Atomic      Atomic             Coordinates (Angstroms)
 Number     Number       Type             X           Y           Z
 ---------------------------------------------------------------------
      1          6           0        6.065045    1.631784   -0.017133
      2          6           0        4.685143    1.421700   -0.009387
      3          6           0        4.128563    0.128602   -0.034485
      4          6           0        4.948908   -0.985820   -0.063948
      5          6           0        6.336905   -0.773389   -0.057956
      6          6           0        6.895377    0.505843   -0.046252
      7          6           0        2.625535    0.258546   -0.037377
      8          6           0        2.413378    1.762569   -0.006327
      9          7           0        3.646774    2.368918    0.009945
     10          6           0        3.830800    3.809247    0.038389
     11          6           0        1.213798    2.442458    0.003856
     12          6           0       -1.264669    2.444111    0.003221
     13          6           0       -0.046002    1.795567   -0.010338
     14          6           0       -4.006706    3.764087    0.031192
     15          7           0       -3.713298    2.337038    0.009238
     16          6           0       -2.502096    1.759203   -0.005839
     17          6           0       -2.693233    0.255778   -0.028686
     18          6           0       -4.191629    0.094301   -0.015548
     19          6           0       -4.759993    1.379765    0.008344
     20          6           0       -6.137469    1.596886    0.030970
     21          6           0       -6.952727    0.459862    0.027587
     22          6           0       -6.400488   -0.828602    0.000705
     23          6           0       -5.007176   -1.022148   -0.020113
     24         16           0       -7.488475   -2.313920   -0.004031
     25         16           0        7.426307   -2.193698   -0.115971
     26          8           0        8.758089   -1.751587   -0.559501
     27          8           0        7.504503   -2.536015    1.513031
     28          8           0        6.728679   -3.334994   -0.747177
     29          8           0       -8.871655   -1.742617    0.056631
     30          8           0       -7.104986   -2.966949   -1.298937
     31          8           0       -7.021932   -3.038082    1.224157
     32          1           0        6.502543    2.630099   -0.010483
     33          1           0        4.549354   -2.000029   -0.103670
     34          1           0        7.979711    0.615823   -0.069677
     35          1           0        2.160737   -0.227225    0.836228
     36          1           0        2.168969   -0.189199   -0.935358
     37          1           0        4.899974    4.044227    0.068119
     38          1           0        3.393054    4.274872   -0.859394
     39          1           0        3.352224    4.242398    0.931297
     40          1           0        1.225529    3.534134    0.024791
     41          1           0       -1.266182    3.535695    0.026748
     42          1           0       -0.049227    0.701503   -0.032081
     43          1           0       -4.653817    4.012831   -0.822576
     44          1           0       -4.538200    4.015606    0.961289
     45          1           0       -3.086621    4.351997   -0.031903
     46          1           0       -2.206243   -0.209285    0.844565
     47          1           0       -2.225211   -0.178544   -0.927978
     48          1           0       -6.570059    2.598839    0.053176
     49          1           0       -8.041589    0.535594    0.046626
     50          1           0       -4.613340   -2.039817   -0.036058
     51          1           0        7.449560   -3.509467    1.571199
 ---------------------------------------------------------------------

 The electronic state is 1-A.
 Alpha  occ. eigenvalues --  -89.15015 -89.01613 -19.21158 -19.16746 -19.16629
 Alpha  occ. eigenvalues --  -19.02704 -19.02613 -19.02594 -14.45961 -14.45150
 Alpha  occ. eigenvalues --  -10.31082 -10.31080 -10.29725 -10.29286 -10.28620
 Alpha  occ. eigenvalues --  -10.27027 -10.26968 -10.26637 -10.26013 -10.25870
 Alpha  occ. eigenvalues --  -10.25690 -10.25536 -10.25185 -10.25118 -10.25026
 Alpha  occ. eigenvalues --  -10.24634 -10.21918 -10.21316 -10.19682 -10.19027
 Alpha  occ. eigenvalues --  -10.18752  -8.18175  -8.04447  -6.14598  -6.14444
 Alpha  occ. eigenvalues --   -6.14304  -6.00777  -6.00751  -6.00742  -1.15855
 Alpha  occ. eigenvalues --   -1.05994  -1.05651  -1.05316  -1.03154  -1.01516
 Alpha  occ. eigenvalues --   -0.92350  -0.88855  -0.88289  -0.87952  -0.87774
 Alpha  occ. eigenvalues --   -0.86876  -0.84795  -0.82738  -0.80988  -0.78253
 Alpha  occ. eigenvalues --   -0.77271  -0.76538  -0.74951  -0.73570  -0.71629
 Alpha  occ. eigenvalues --   -0.68316  -0.66431  -0.65118  -0.63112  -0.62375
 Alpha  occ. eigenvalues --   -0.60847  -0.60056  -0.58709  -0.57289  -0.56804
 Alpha  occ. eigenvalues --   -0.54818  -0.54510  -0.54191  -0.53998  -0.53326
 Alpha  occ. eigenvalues --   -0.52126  -0.51465  -0.50957  -0.49813  -0.49127
 Alpha  occ. eigenvalues --   -0.48651  -0.48476  -0.48287  -0.47526  -0.47153
 Alpha  occ. eigenvalues --   -0.46685  -0.46126  -0.45519  -0.45288  -0.44521
 Alpha  occ. eigenvalues --   -0.44079  -0.43530  -0.43397  -0.42078  -0.41366
 Alpha  occ. eigenvalues --   -0.41029  -0.40683  -0.40475  -0.39151  -0.38450
 Alpha  occ. eigenvalues --   -0.38167  -0.36684  -0.36209  -0.36186  -0.35354
 Alpha  occ. eigenvalues --   -0.34632  -0.34230  -0.34163  -0.32191  -0.31447
 Alpha  occ. eigenvalues --   -0.31202  -0.27347  -0.26619  -0.24112  -0.23625
 Alpha  occ. eigenvalues --   -0.23422  -0.20893  -0.20334  -0.19588  -0.16382
 Alpha virt. eigenvalues --   -0.13752  -0.07422  -0.07289  -0.03773  -0.01934
 Alpha virt. eigenvalues --   -0.00169  -0.00074   0.00495   0.01060   0.01472
 Alpha virt. eigenvalues --    0.02519   0.03217   0.03885   0.04375   0.05118

 Mulliken atomic charges:
              1
     1  C   -0.003107
     2  C    0.245937
     3  C   -0.139381
     4  C    0.051185
     5  C   -0.250414
     6  C    0.111857
     7  C    0.158369
     8  C    0.066876
     9  N   -0.300044
    10  C    0.076118
    11  C   -0.060400
    12  C   -0.038366
    13  C    0.061876
    14  C    0.073160
    15  N   -0.251590
    16  C    0.058929
    17  C    0.149249
    18  C   -0.120911
    19  C    0.215012
    20  C   -0.004779
    21  C    0.092091
    22  C   -0.242416
    23  C    0.066833
    24  S    0.987448
    25  S    0.995518
    26  O   -0.409851
    27  O   -0.324544
    28  O   -0.437454
    29  O   -0.520453
    30  O   -0.524523
    31  O   -0.525205
    32  H   -0.005694
    33  H   -0.014157
    34  H    0.004780
    35  H    0.080634
    36  H    0.082526
    37  H    0.055165
    38  H    0.058621
    39  H    0.058667
    40  H   -0.032037
    41  H   -0.023469
    42  H   -0.008358
    43  H    0.072668
    44  H    0.071604
    45  H    0.054039
    46  H    0.080943
    47  H    0.081650
    48  H   -0.032457
    49  H   -0.006078
    50  H   -0.027268
    51  H    0.191202
 Sum of Mulliken atomic charges =   0.00000

 Dipole moment (field-independent basis, Debye):
    X=             21.8558    Y=             19.2022    Z=              1.6266  Tot=             29.1384
 Quadrupole moment (field-independent basis, Debye-Ang):
   XX=           -384.2498   YY=           -180.0721   ZZ=           -202.3897
   XY=            -68.9714   XZ=             11.7552   YZ=             -7.1616

 Normal termination of Gaussian 09 at Fri Mar 20 15:29:05 2015.
