 Gaussian 09, Revision B.01,
 Gaussian 09:  EM64L-G09RevB.01 12-Aug-2010

 ------------------------------------------------------
 # opt=modredundant B3LYP/cc-pVDZ Geom=PrintInputOrient
 ------------------------------------------------------

 -------------------------------
 CY3 Dihedral Scan at MP2/6-31G*
 -------------------------------
 Symbolic Z-matrix:
 Charge =  0 Multiplicity = 1

 SCF Done:  E(RB3LYP) =  -2169.39489223     A.U. after   31 cycles
 SCF Done:  E(RB3LYP) =  -2169.39489903     A.U. after    8 cycles
 SCF Done:  E(RB3LYP) =  -2169.39489944     A.U. after    8 cycles
 Optimization completed.
    -- Stationary point found.
 SCF Done:  E(RB3LYP) =  -2169.39109968     A.U. after   17 cycles
 SCF Done:  E(RB3LYP) =  -2169.39112236     A.U. after    9 cycles
 SCF Done:  E(RB3LYP) =  -2169.39265590     A.U. after   12 cycles
 SCF Done:  E(RB3LYP) =  -2169.39302609     A.U. after   16 cycles
 SCF Done:  E(RB3LYP) =  -2169.39310907     A.U. after   12 cycles
 SCF Done:  E(RB3LYP) =  -2169.39316168     A.U. after   11 cycles
 SCF Done:  E(RB3LYP) =  -2169.39321091     A.U. after   11 cycles
 Optimization completed.
    -- Stationary point found.
 SCF Done:  E(RB3LYP) =  -2169.38834541     A.U. after    8 cycles
 SCF Done:  E(RB3LYP) =  -2169.38834603     A.U. after   11 cycles
 SCF Done:  E(RB3LYP) =  -2169.38834671     A.U. after   11 cycles
 SCF Done:  E(RB3LYP) =  -2169.38834717     A.U. after   11 cycles
 SCF Done:  E(RB3LYP) =  -2169.38834734     A.U. after    8 cycles
 SCF Done:  E(RB3LYP) =  -2169.38834745     A.U. after    8 cycles
 SCF Done:  E(RB3LYP) =  -2169.38834759     A.U. after    8 cycles
 SCF Done:  E(RB3LYP) =  -2169.38834781     A.U. after   10 cycles
 SCF Done:  E(RB3LYP) =  -2169.38834787     A.U. after    8 cycles
 SCF Done:  E(RB3LYP) =  -2169.38834789     A.U. after    8 cycles
 Optimization completed.
    -- Stationary point found.

                         Standard orientation:
 ---------------------------------------------------------------------
 Center     Atomic      Atomic             Coordinates (Angstroms)
 Number     Number       Type             X           Y           Z
 ---------------------------------------------------------------------
      1          6           0       -5.967349    1.573515    0.681388
      2          6           0       -4.613631    1.371126    0.408152
      3          6           0       -4.115668    0.119513   -0.002243
      4          6           0       -4.970183   -0.959095   -0.150168
      5          6           0       -6.334099   -0.750346    0.110975
      6          6           0       -6.832646    0.484193    0.529758
      7          6           0       -2.624941    0.242440   -0.197460
      8          6           0       -2.357151    1.700378    0.133684
      9          7           0       -3.549428    2.286448    0.484563
     10          6           0       -3.673774    3.680284    0.873951
     11          6           0       -1.147350    2.362496    0.096991
     12          6           0        1.301070    2.364023   -0.289562
     13          6           0        0.068747    1.738555   -0.269525
     14          6           0        3.940227    3.734115   -0.435075
     15          7           0        3.710401    2.300264   -0.552252
     16          6           0        2.504291    1.705335   -0.633911
     17          6           0        2.736347    0.212525   -0.748021
     18          6           0        4.194594    0.065863   -0.388055
     19          6           0        4.754717    1.355997   -0.382111
     20          6           0        6.120218    1.582786   -0.194455
     21          6           0        6.923166    0.457605    0.007206
     22          6           0        6.373750   -0.834714    0.019627
     23          6           0        5.003546   -1.043403   -0.213852
     24         16           0        7.447741   -2.284946    0.380634
     25         16           0       -7.465945   -2.127507   -0.061145
     26          8           0       -8.718636   -1.803626    0.640324
     27          8           0       -7.741663   -2.032380   -1.702274
     28          8           0       -6.748530   -3.400616    0.165858
     29          8           0        7.372390   -2.337731    1.878363
     30          8           0        6.749981   -3.405804   -0.331061
     31          8           0        8.775525   -1.874393   -0.179169
     32          1           0       -6.358583    2.537032    1.008102
     33          1           0       -4.612730   -1.945599   -0.448332
     34          1           0       -7.896835    0.585661    0.743267
     35          1           0       -2.314605    0.003905   -1.227834
     36          1           0       -2.059405   -0.426243    0.472432
     37          1           0       -4.713272    3.896924    1.141698
     38          1           0       -3.035885    3.895016    1.745992
     39          1           0       -3.377565    4.344020    0.045469
     40          1           0       -1.117300    3.421316    0.362422
     41          1           0        1.348368    3.424282   -0.031661
     42          1           0        0.030291    0.680057   -0.545234
     43          1           0        4.001735    4.032583    0.623974
     44          1           0        4.888362    3.982320   -0.928813
     45          1           0        3.133495    4.285949   -0.931390
     46          1           0        2.554350   -0.118788   -1.787468
     47          1           0        2.052974   -0.356859   -0.102496
     48          1           0        6.551321    2.585530   -0.194662
     49          1           0        8.000719    0.551903    0.152300
     50          1           0        4.634308   -2.070519   -0.245134
     51          1           0       -7.761110   -2.958976   -2.010730
 ---------------------------------------------------------------------

 The electronic state is 1-A.
 Alpha  occ. eigenvalues --  -89.15022 -89.01714 -19.21186 -19.16740 -19.16650
 Alpha  occ. eigenvalues --  -19.02787 -19.02784 -19.02689 -14.45526 -14.45207
 Alpha  occ. eigenvalues --  -10.31104 -10.30728 -10.29747 -10.29295 -10.28418
 Alpha  occ. eigenvalues --  -10.27036 -10.26916 -10.26660 -10.26041 -10.25901
 Alpha  occ. eigenvalues --  -10.25701 -10.25556 -10.25244 -10.25031 -10.24980
 Alpha  occ. eigenvalues --  -10.24668 -10.21959 -10.21301 -10.19481 -10.19244
 Alpha  occ. eigenvalues --  -10.18831  -8.18184  -8.04551  -6.14607  -6.14452
 Alpha  occ. eigenvalues --   -6.14313  -6.00880  -6.00854  -6.00846  -1.15861
 Alpha  occ. eigenvalues --   -1.06032  -1.05354  -1.05338  -1.03153  -1.01613
 Alpha  occ. eigenvalues --   -0.92372  -0.88775  -0.88360  -0.88082  -0.87706
 Alpha  occ. eigenvalues --   -0.86787  -0.84703  -0.82722  -0.80979  -0.78249
 Alpha  occ. eigenvalues --   -0.77185  -0.76486  -0.74774  -0.73519  -0.71647
 Alpha  occ. eigenvalues --   -0.68301  -0.66433  -0.65052  -0.63016  -0.62260
 Alpha  occ. eigenvalues --   -0.60820  -0.59951  -0.58707  -0.57268  -0.56742
 Alpha  occ. eigenvalues --   -0.54832  -0.54531  -0.54213  -0.53974  -0.53161
 Alpha  occ. eigenvalues --   -0.52050  -0.51462  -0.50967  -0.49826  -0.49087
 Alpha  occ. eigenvalues --   -0.48498  -0.48263  -0.48173  -0.47498  -0.47169
 Alpha  occ. eigenvalues --   -0.46473  -0.46134  -0.45530  -0.45248  -0.44501
 Alpha  occ. eigenvalues --   -0.43961  -0.43544  -0.43361  -0.42047  -0.41482
 Alpha  occ. eigenvalues --   -0.40940  -0.40704  -0.40353  -0.39146  -0.38468
 Alpha  occ. eigenvalues --   -0.38210  -0.36647  -0.36277  -0.36245  -0.35247
 Alpha  occ. eigenvalues --   -0.34636  -0.34215  -0.34157  -0.32170  -0.31462
 Alpha  occ. eigenvalues --   -0.31194  -0.27309  -0.26572  -0.24177  -0.23654
 Alpha  occ. eigenvalues --   -0.23529  -0.20854  -0.20604  -0.19611  -0.16487
 Alpha virt. eigenvalues --   -0.13967  -0.07481  -0.07317  -0.03920  -0.01909
 Alpha virt. eigenvalues --   -0.00370  -0.00068   0.00542   0.01190   0.01638
 Alpha virt. eigenvalues --    0.02352   0.03297   0.03843   0.04653   0.05216

 Mulliken atomic charges:
              1
     1  C   -0.002722
     2  C    0.245937
     3  C   -0.139894
     4  C    0.053058
     5  C   -0.250167
     6  C    0.111259
     7  C    0.158543
     8  C    0.066188
     9  N   -0.299203
    10  C    0.075554
    11  C   -0.060268
    12  C   -0.031844
    13  C    0.063587
    14  C    0.074847
    15  N   -0.243293
    16  C    0.053025
    17  C    0.136647
    18  C   -0.100421
    19  C    0.191824
    20  C    0.003399
    21  C    0.109905
    22  C   -0.242726
    23  C    0.046407
    24  S    0.986132
    25  S    0.995015
    26  O   -0.409869
    27  O   -0.325272
    28  O   -0.436550
    29  O   -0.516711
    30  O   -0.524612
    31  O   -0.519320
    32  H   -0.005428
    33  H   -0.014703
    34  H    0.005079
    35  H    0.079607
    36  H    0.084224
    37  H    0.055427
    38  H    0.060413
    39  H    0.058029
    40  H   -0.030353
    41  H   -0.023660
    42  H   -0.008469
    43  H    0.063762
    44  H    0.072489
    45  H    0.056443
    46  H    0.082600
    47  H    0.064201
    48  H   -0.028959
    49  H   -0.006414
    50  H   -0.023592
    51  H    0.190844
 Sum of Mulliken atomic charges =   0.00000

 Dipole moment (field-independent basis, Debye):
    X=            -21.7973    Y=             19.0596    Z=             -3.6819  Tot=             29.1881
 Quadrupole moment (field-independent basis, Debye-Ang):
   XX=           -379.4171   YY=           -185.3387   ZZ=           -197.7802
   XY=             65.8394   XZ=             -8.5729   YZ=             15.1774

 Normal termination of Gaussian 09 at Wed Mar 18 15:37:17 2015.
