 Gaussian 09, Revision B.01,
 Gaussian 09:  EM64L-G09RevB.01 12-Aug-2010

 ------------------------------------------------------
 # opt=modredundant B3LYP/cc-pVDZ Geom=PrintInputOrient
 ------------------------------------------------------

 -------------------------------
 CY3 Dihedral Scan at MP2/6-31G*
 -------------------------------
 Symbolic Z-matrix:
 Charge =  0 Multiplicity = 1

 SCF Done:  E(RB3LYP) =  -2169.39489223     A.U. after   31 cycles
 SCF Done:  E(RB3LYP) =  -2169.39489903     A.U. after    8 cycles
 SCF Done:  E(RB3LYP) =  -2169.39489944     A.U. after    8 cycles
 Optimization completed.
    -- Stationary point found.
 SCF Done:  E(RB3LYP) =  -2169.39243031     A.U. after   16 cycles
 SCF Done:  E(RB3LYP) =  -2169.39246202     A.U. after    8 cycles
 SCF Done:  E(RB3LYP) =  -2169.39322005     A.U. after   13 cycles
 SCF Done:  E(RB3LYP) =  -2169.39329675     A.U. after   12 cycles
 SCF Done:  E(RB3LYP) =  -2169.39331320     A.U. after   11 cycles
 SCF Done:  E(RB3LYP) =  -2169.39331538     A.U. after    8 cycles
 SCF Done:  E(RB3LYP) =  -2169.39331581     A.U. after    7 cycles
 SCF Done:  E(RB3LYP) =  -2169.39331771     A.U. after    8 cycles
 SCF Done:  E(RB3LYP) =  -2169.39331774     A.U. after    7 cycles
 SCF Done:  E(RB3LYP) =  -2169.39331777     A.U. after    7 cycles
 Optimization completed on the basis of negligible forces.
    -- Stationary point found.
 SCF Done:  E(RB3LYP) =  -2169.38653688     A.U. after   16 cycles
 SCF Done:  E(RB3LYP) =  -2169.38847365     A.U. after   12 cycles
 SCF Done:  E(RB3LYP) =  -2169.38849500     A.U. after   13 cycles
 SCF Done:  E(RB3LYP) =  -2169.38852014     A.U. after   16 cycles
 SCF Done:  E(RB3LYP) =  -2169.38853650     A.U. after   11 cycles
 SCF Done:  E(RB3LYP) =  -2169.38853685     A.U. after    8 cycles
 SCF Done:  E(RB3LYP) =  -2169.38853696     A.U. after    7 cycles
 Optimization completed.
    -- Stationary point found.

                         Standard orientation:
 ---------------------------------------------------------------------
 Center     Atomic      Atomic             Coordinates (Angstroms)
 Number     Number       Type             X           Y           Z
 ---------------------------------------------------------------------
      1          6           0        6.069707    1.631909   -0.132670
      2          6           0        4.691362    1.417236   -0.086766
      3          6           0        4.140111    0.122698   -0.036628
      4          6           0        4.964784   -0.988969   -0.027072
      5          6           0        6.351533   -0.771313   -0.059157
      6          6           0        6.904383    0.508842   -0.122177
      7          6           0        2.636869    0.247339   -0.015954
      8          6           0        2.419006    1.750022   -0.056964
      9          7           0        3.648794    2.360696   -0.093142
     10          6           0        3.827369    3.801525   -0.140535
     11          6           0        1.215923    2.425823   -0.061547
     12          6           0       -1.262107    2.420873   -0.040315
     13          6           0       -0.040059    1.775629   -0.021936
     14          6           0       -3.989710    3.684652    0.482593
     15          7           0       -3.703975    2.339641   -0.017173
     16          6           0       -2.497711    1.738532   -0.017950
     17          6           0       -2.699523    0.243398    0.107709
     18          6           0       -4.196615    0.090875    0.028427
     19          6           0       -4.754550    1.377641   -0.022083
     20          6           0       -6.133174    1.599813   -0.042437
     21          6           0       -6.953966    0.469519   -0.033141
     22          6           0       -6.408436   -0.824143   -0.003614
     23          6           0       -5.019325   -1.023540    0.047012
     24         16           0       -7.519774   -2.291624   -0.055033
     25         16           0        7.446521   -2.188883   -0.067371
     26          8           0        8.768470   -1.763474   -0.554362
     27          8           0        7.552546   -2.450577    1.574861
     28          8           0        6.743648   -3.361882   -0.630751
     29          8           0       -7.662004   -2.497757   -1.534368
     30          8           0       -6.721922   -3.341872    0.659642
     31          8           0       -8.753676   -1.812308    0.646587
     32          1           0        6.502738    2.630838   -0.184869
     33          1           0        4.569154   -2.005320   -0.008539
     34          1           0        7.987574    0.621192   -0.172167
     35          1           0        2.191668   -0.194779    0.890494
     36          1           0        2.163900   -0.246776   -0.880476
     37          1           0        4.895782    4.041407   -0.128618
     38          1           0        3.382619    4.218942   -1.058340
     39          1           0        3.352300    4.277587    0.731995
     40          1           0        1.223562    3.517000   -0.101147
     41          1           0       -1.269941    3.511430   -0.104301
     42          1           0       -0.040529    0.682199    0.023488
     43          1           0       -4.733655    4.174667   -0.160560
     44          1           0       -4.398274    3.600313    1.500940
     45          1           0       -3.081159    4.295329    0.497155
     46          1           0       -2.300216   -0.078853    1.086046
     47          1           0       -2.158582   -0.324544   -0.665261
     48          1           0       -6.561268    2.603567   -0.064889
     49          1           0       -8.041459    0.561555   -0.031655
     50          1           0       -4.644926   -2.046771    0.118300
     51          1           0        7.507332   -3.420450    1.681443
 ---------------------------------------------------------------------

 The electronic state is 1-A.
 Alpha  occ. eigenvalues --  -89.15105 -89.01568 -19.21251 -19.16834 -19.16720
 Alpha  occ. eigenvalues --  -19.02641 -19.02610 -19.02530 -14.45431 -14.45345
 Alpha  occ. eigenvalues --  -10.31261 -10.31039 -10.29849 -10.29410 -10.28476
 Alpha  occ. eigenvalues --  -10.27158 -10.27094 -10.26755 -10.26145 -10.25987
 Alpha  occ. eigenvalues --  -10.25799 -10.25663 -10.25116 -10.25044 -10.24935
 Alpha  occ. eigenvalues --  -10.24791 -10.21823 -10.21113 -10.19342 -10.19100
 Alpha  occ. eigenvalues --  -10.18646  -8.18266  -8.04403  -6.14689  -6.14534
 Alpha  occ. eigenvalues --   -6.14395  -6.00733  -6.00707  -6.00698  -1.15946
 Alpha  occ. eigenvalues --   -1.06166  -1.05409  -1.05218  -1.03244  -1.01460
 Alpha  occ. eigenvalues --   -0.92477  -0.88936  -0.88202  -0.87935  -0.87533
 Alpha  occ. eigenvalues --   -0.86934  -0.84783  -0.82759  -0.81017  -0.78254
 Alpha  occ. eigenvalues --   -0.77066  -0.76576  -0.74873  -0.73544  -0.71680
 Alpha  occ. eigenvalues --   -0.68334  -0.66536  -0.65064  -0.63081  -0.62184
 Alpha  occ. eigenvalues --   -0.60885  -0.60023  -0.58798  -0.57359  -0.56703
 Alpha  occ. eigenvalues --   -0.54701  -0.54509  -0.54327  -0.54034  -0.53075
 Alpha  occ. eigenvalues --   -0.52094  -0.51553  -0.51053  -0.49940  -0.49201
 Alpha  occ. eigenvalues --   -0.48613  -0.48369  -0.48352  -0.47559  -0.47241
 Alpha  occ. eigenvalues --   -0.46609  -0.46055  -0.45622  -0.45209  -0.44596
 Alpha  occ. eigenvalues --   -0.43913  -0.43649  -0.43448  -0.42016  -0.41597
 Alpha  occ. eigenvalues --   -0.41037  -0.40805  -0.39986  -0.39180  -0.38488
 Alpha  occ. eigenvalues --   -0.38071  -0.36665  -0.36273  -0.36099  -0.35302
 Alpha  occ. eigenvalues --   -0.34517  -0.34311  -0.34214  -0.32271  -0.31562
 Alpha  occ. eigenvalues --   -0.31256  -0.27321  -0.26463  -0.24246  -0.23505
 Alpha  occ. eigenvalues --   -0.23417  -0.20707  -0.20456  -0.19500  -0.16340
 Alpha virt. eigenvalues --   -0.14056  -0.07564  -0.07415  -0.04002  -0.01754
 Alpha virt. eigenvalues --   -0.00541  -0.00216   0.00478   0.01021   0.01583
 Alpha virt. eigenvalues --    0.02233   0.03173   0.03757   0.04495   0.05008

 Mulliken atomic charges:
              1
     1  C   -0.002726
     2  C    0.245819
     3  C   -0.139259
     4  C    0.051609
     5  C   -0.250275
     6  C    0.111941
     7  C    0.158496
     8  C    0.067713
     9  N   -0.299135
    10  C    0.075795
    11  C   -0.059636
    12  C   -0.036997
    13  C    0.063050
    14  C    0.069194
    15  N   -0.249729
    16  C    0.058622
    17  C    0.147916
    18  C   -0.103477
    19  C    0.203367
    20  C   -0.008785
    21  C    0.109960
    22  C   -0.242236
    23  C    0.038761
    24  S    0.985874
    25  S    0.995679
    26  O   -0.409501
    27  O   -0.324554
    28  O   -0.436904
    29  O   -0.517164
    30  O   -0.526145
    31  O   -0.521054
    32  H   -0.005208
    33  H   -0.013798
    34  H    0.005196
    35  H    0.080777
    36  H    0.083604
    37  H    0.055645
    38  H    0.059767
    39  H    0.058988
    40  H   -0.031034
    41  H   -0.020308
    42  H   -0.008119
    43  H    0.070189
    44  H    0.073287
    45  H    0.050287
    46  H    0.085239
    47  H    0.074549
    48  H   -0.032487
    49  H   -0.007397
    50  H   -0.026733
    51  H    0.191340
 Sum of Mulliken atomic charges =   0.00000

 Dipole moment (field-independent basis, Debye):
    X=             22.5029    Y=             18.9827    Z=              2.4852  Tot=             29.5449
 Quadrupole moment (field-independent basis, Debye-Ang):
   XX=           -386.6094   YY=           -181.3603   ZZ=           -201.4586
   XY=            -67.0518   XZ=              6.2033   YZ=             -7.0836

 Normal termination of Gaussian 09 at Sat Mar 21 20:25:19 2015.
