 Gaussian 09, Revision B.01,
 Gaussian 09:  EM64L-G09RevB.01 12-Aug-2010

 ------------------------------------------------------
 # opt=modredundant B3LYP/cc-pVDZ Geom=PrintInputOrient
 ------------------------------------------------------

 -------------------------------
 CY3 Dihedral Scan at MP2/6-31G*
 -------------------------------
 Symbolic Z-matrix:
 Charge =  0 Multiplicity = 1

 SCF Done:  E(RB3LYP) =  -2169.39489223     A.U. after   31 cycles
 SCF Done:  E(RB3LYP) =  -2169.39489902     A.U. after    8 cycles
 SCF Done:  E(RB3LYP) =  -2169.39489943     A.U. after    8 cycles
 Optimization completed.
    -- Stationary point found.
 SCF Done:  E(RB3LYP) =  -2169.39188428     A.U. after   13 cycles
 SCF Done:  E(RB3LYP) =  -2169.39183869     A.U. after   11 cycles
 SCF Done:  E(RB3LYP) =  -2169.39201952     A.U. after   12 cycles
 SCF Done:  E(RB3LYP) =  -2169.39203053     A.U. after    8 cycles
 SCF Done:  E(RB3LYP) =  -2169.39203270     A.U. after    8 cycles
 SCF Done:  E(RB3LYP) =  -2169.39203325     A.U. after    8 cycles
 SCF Done:  E(RB3LYP) =  -2169.39203343     A.U. after    7 cycles
 Optimization completed.
    -- Stationary point found.
 SCF Done:  E(RB3LYP) =  -2169.38307092     A.U. after   13 cycles
 SCF Done:  E(RB3LYP) =  -2169.38307716     A.U. after   12 cycles
 SCF Done:  E(RB3LYP) =  -2169.38307843     A.U. after   10 cycles
 SCF Done:  E(RB3LYP) =  -2169.38307910     A.U. after    8 cycles
 SCF Done:  E(RB3LYP) =  -2169.38307941     A.U. after    7 cycles
 SCF Done:  E(RB3LYP) =  -2169.38307942     A.U. after    7 cycles
 SCF Done:  E(RB3LYP) =  -2169.38307940     A.U. after    7 cycles
 SCF Done:  E(RB3LYP) =  -2169.38307954     A.U. after    7 cycles
 SCF Done:  E(RB3LYP) =  -2169.38307987     A.U. after    7 cycles
 SCF Done:  E(RB3LYP) =  -2169.38307994     A.U. after    7 cycles
 Optimization completed.
    -- Stationary point found.

                         Standard orientation:
 ---------------------------------------------------------------------
 Center     Atomic      Atomic             Coordinates (Angstroms)
 Number     Number       Type             X           Y           Z
 ---------------------------------------------------------------------
      1          6           0        6.075044    1.631786   -0.011080
      2          6           0        4.695591    1.418368   -0.004856
      3          6           0        4.142256    0.123848   -0.032403
      4          6           0        4.965415   -0.988435   -0.062887
      5          6           0        6.352918   -0.772618   -0.055472
      6          6           0        6.908194    0.507988   -0.041295
      7          6           0        2.638866    0.250001   -0.036588
      8          6           0        2.422907    1.753435   -0.003956
      9          7           0        3.655079    2.362904    0.014785
     10          6           0        3.835423    3.803580    0.045260
     11          6           0        1.221836    2.430338    0.004932
     12          6           0       -1.256314    2.428411   -0.001964
     13          6           0       -0.036948    1.781182   -0.012169
     14          6           0       -3.993463    3.753824   -0.032308
     15          7           0       -3.704483    2.325623   -0.016332
     16          6           0       -2.494007    1.744266   -0.016836
     17          6           0       -2.690063    0.241161   -0.015520
     18          6           0       -4.188735    0.083724   -0.003108
     19          6           0       -4.751181    1.372703    0.040064
     20          6           0       -6.134746    1.568169   -0.031466
     21          6           0       -6.908910    0.446324    0.283741
     22          6           0       -6.404110   -0.838384    0.015557
     23          6           0       -5.012680   -1.029778   -0.088670
     24         16           0       -7.533461   -2.292232   -0.016450
     25         16           0        7.445748   -2.190046   -0.115020
     26          8           0        8.776855   -1.744191   -0.556939
     27          8           0        7.523476   -2.534743    1.513577
     28          8           0        6.751526   -3.332151   -0.748563
     29          8           0       -8.058543   -2.228730   -1.418968
     30          8           0       -6.617963   -3.444283    0.272433
     31          8           0       -8.526523   -1.957038    1.054975
     32          1           0        6.510058    2.631174   -0.002531
     33          1           0        4.568409   -2.003569   -0.104504
     34          1           0        7.992267    0.620730   -0.063694
     35          1           0        2.174446   -0.238070    0.835961
     36          1           0        2.184322   -0.197870   -0.935538
     37          1           0        4.903962    4.041279    0.076489
     38          1           0        3.397512    4.269322   -0.852411
     39          1           0        3.354713    4.234457    0.938144
     40          1           0        1.231143    3.522044    0.026630
     41          1           0       -1.258785    3.520043    0.022916
     42          1           0       -0.038695    0.687078   -0.034133
     43          1           0       -4.693754    3.968123   -0.852475
     44          1           0       -4.462453    4.048814    0.918648
     45          1           0       -3.078591    4.333376   -0.186216
     46          1           0       -2.204770   -0.209829    0.866278
     47          1           0       -2.222059   -0.210454   -0.906076
     48          1           0       -6.575614    2.567980   -0.024291
     49          1           0       -7.983819    0.539663    0.453675
     50          1           0       -4.637221   -2.049217   -0.198441
     51          1           0        7.473791   -3.508581    1.569946
 ---------------------------------------------------------------------

 The electronic state is 1-A.
 Alpha  occ. eigenvalues --  -89.14993 -89.01778 -19.21137 -19.16724 -19.16607
 Alpha  occ. eigenvalues --  -19.02858 -19.02831 -19.02650 -14.45969 -14.45098
 Alpha  occ. eigenvalues --  -10.31018 -10.31005 -10.29691 -10.29250 -10.28609
 Alpha  occ. eigenvalues --  -10.26987 -10.26903 -10.26606 -10.25978 -10.25840
 Alpha  occ. eigenvalues --  -10.25662 -10.25502 -10.25221 -10.25080 -10.24994
 Alpha  occ. eigenvalues --  -10.24591 -10.21904 -10.21365 -10.19424 -10.19369
 Alpha  occ. eigenvalues --  -10.18913  -8.18153  -8.04608  -6.14576  -6.14422
 Alpha  occ. eigenvalues --   -6.14282  -6.00942  -6.00912  -6.00900  -1.15832
 Alpha  occ. eigenvalues --   -1.05946  -1.05629  -1.05294  -1.03131  -1.01659
 Alpha  occ. eigenvalues --   -0.92316  -0.88805  -0.88400  -0.88132  -0.87785
 Alpha  occ. eigenvalues --   -0.86835  -0.84774  -0.82730  -0.80981  -0.78229
 Alpha  occ. eigenvalues --   -0.77178  -0.76514  -0.74898  -0.73517  -0.71592
 Alpha  occ. eigenvalues --   -0.68289  -0.66397  -0.65090  -0.63058  -0.62235
 Alpha  occ. eigenvalues --   -0.60792  -0.60013  -0.58672  -0.57252  -0.56741
 Alpha  occ. eigenvalues --   -0.54820  -0.54470  -0.54149  -0.54013  -0.53296
 Alpha  occ. eigenvalues --   -0.52163  -0.51436  -0.50927  -0.49774  -0.49096
 Alpha  occ. eigenvalues --   -0.48606  -0.48461  -0.48240  -0.47488  -0.47124
 Alpha  occ. eigenvalues --   -0.46547  -0.46060  -0.45490  -0.45191  -0.44454
 Alpha  occ. eigenvalues --   -0.43960  -0.43496  -0.43336  -0.42013  -0.41353
 Alpha  occ. eigenvalues --   -0.40988  -0.40651  -0.40449  -0.39145  -0.38523
 Alpha  occ. eigenvalues --   -0.38279  -0.36782  -0.36328  -0.36208  -0.35380
 Alpha  occ. eigenvalues --   -0.34544  -0.34201  -0.34104  -0.32163  -0.31416
 Alpha  occ. eigenvalues --   -0.31150  -0.27225  -0.26277  -0.24195  -0.23664
 Alpha  occ. eigenvalues --   -0.23558  -0.20940  -0.20556  -0.19694  -0.16514
 Alpha virt. eigenvalues --   -0.13723  -0.07397  -0.07259  -0.03828  -0.02367
 Alpha virt. eigenvalues --   -0.00310  -0.00100   0.00523   0.01100   0.01507
 Alpha virt. eigenvalues --    0.02538   0.03239   0.03916   0.04415   0.05140

 Mulliken atomic charges:
              1
     1  C   -0.003231
     2  C    0.246019
     3  C   -0.139570
     4  C    0.051098
     5  C   -0.250461
     6  C    0.111798
     7  C    0.158548
     8  C    0.066462
     9  N   -0.300106
    10  C    0.076181
    11  C   -0.060411
    12  C   -0.035745
    13  C    0.061313
    14  C    0.070849
    15  N   -0.243437
    16  C    0.063819
    17  C    0.140970
    18  C   -0.110918
    19  C    0.180549
    20  C   -0.006150
    21  C    0.092811
    22  C   -0.240914
    23  C    0.050108
    24  S    0.988847
    25  S    0.995388
    26  O   -0.409977
    27  O   -0.324594
    28  O   -0.437573
    29  O   -0.516434
    30  O   -0.523303
    31  O   -0.519053
    32  H   -0.005824
    33  H   -0.014299
    34  H    0.004658
    35  H    0.080433
    36  H    0.082228
    37  H    0.055031
    38  H    0.058419
    39  H    0.058547
    40  H   -0.032185
    41  H   -0.023592
    42  H   -0.008840
    43  H    0.075551
    44  H    0.070574
    45  H    0.053612
    46  H    0.081041
    47  H    0.080227
    48  H   -0.022082
    49  H    0.004423
    50  H   -0.021918
    51  H    0.191113
 Sum of Mulliken atomic charges =   0.00000

 Dipole moment (field-independent basis, Debye):
    X=             21.8878    Y=             18.9372    Z=              1.7338  Tot=             28.9948
 Quadrupole moment (field-independent basis, Debye-Ang):
   XX=           -386.7741   YY=           -179.6929   ZZ=           -202.2281
   XY=            -67.8154   XZ=             10.5642   YZ=             -7.4351

 Normal termination of Gaussian 09 at Fri Mar 20 05:09:48 2015.
