 Gaussian 09, Revision B.01,
 Gaussian 09:  EM64L-G09RevB.01 12-Aug-2010

 ------------------------------------------------------
 # opt=modredundant B3LYP/cc-pVDZ Geom=PrintInputOrient
 ------------------------------------------------------

 -------------------------------
 CY3 Dihedral Scan at MP2/6-31G*
 -------------------------------
 Symbolic Z-matrix:
 Charge =  0 Multiplicity = 1

 SCF Done:  E(RB3LYP) =  -2169.39489223     A.U. after   31 cycles
 SCF Done:  E(RB3LYP) =  -2169.39489903     A.U. after    8 cycles
 SCF Done:  E(RB3LYP) =  -2169.39489944     A.U. after    8 cycles
 Optimization completed.
    -- Stationary point found.
 SCF Done:  E(RB3LYP) =  -2169.38946293     A.U. after   18 cycles
 SCF Done:  E(RB3LYP) =  -2169.38948297     A.U. after    8 cycles
 SCF Done:  E(RB3LYP) =  -2169.39075000     A.U. after   15 cycles
 SCF Done:  E(RB3LYP) =  -2169.39116868     A.U. after   12 cycles
 SCF Done:  E(RB3LYP) =  -2169.39121464     A.U. after   11 cycles
 SCF Done:  E(RB3LYP) =  -2169.39122449     A.U. after   10 cycles
 SCF Done:  E(RB3LYP) =  -2169.39123557     A.U. after   10 cycles
 Optimization completed.
    -- Stationary point found.
 SCF Done:  E(RB3LYP) =  -2169.37937395     A.U. after   12 cycles
 SCF Done:  E(RB3LYP) =  -2169.37958279     A.U. after   12 cycles
 SCF Done:  E(RB3LYP) =  -2169.37959604     A.U. after   10 cycles
 SCF Done:  E(RB3LYP) =  -2169.37960062     A.U. after   11 cycles
 SCF Done:  E(RB3LYP) =  -2169.37960551     A.U. after   13 cycles
 SCF Done:  E(RB3LYP) =  -2169.37960812     A.U. after   12 cycles
 SCF Done:  E(RB3LYP) =  -2169.37961156     A.U. after   12 cycles
 SCF Done:  E(RB3LYP) =  -2169.37961190     A.U. after    9 cycles
 SCF Done:  E(RB3LYP) =  -2169.37961199     A.U. after    8 cycles
 SCF Done:  E(RB3LYP) =  -2169.37961200     A.U. after    7 cycles
 Optimization completed.
    -- Stationary point found.

                         Standard orientation:
 ---------------------------------------------------------------------
 Center     Atomic      Atomic             Coordinates (Angstroms)
 Number     Number       Type             X           Y           Z
 ---------------------------------------------------------------------
      1          6           0        6.062396    1.634637    0.107641
      2          6           0        4.683665    1.418678    0.082639
      3          6           0        4.134047    0.126734   -0.022432
      4          6           0        4.960292   -0.980981   -0.100754
      5          6           0        6.346926   -0.763541   -0.061786
      6          6           0        6.898725    0.515456    0.029075
      7          6           0        2.630753    0.250364   -0.041964
      8          6           0        2.410843    1.749606    0.064012
      9          7           0        3.639926    2.359124    0.136921
     10          6           0        3.816049    3.796814    0.246041
     11          6           0        1.206953    2.423189    0.084014
     12          6           0       -1.271573    2.412087    0.026437
     13          6           0       -0.047012    1.771529    0.010280
     14          6           0       -3.972081    3.743513    0.077142
     15          7           0       -3.714153    2.314488   -0.028308
     16          6           0       -2.502750    1.728741   -0.078959
     17          6           0       -2.713497    0.229918   -0.276739
     18          6           0       -4.190083    0.093426    0.014689
     19          6           0       -4.740727    1.357851   -0.281204
     20          6           0       -6.114917    1.571290   -0.385986
     21          6           0       -6.939717    0.445795   -0.270644
     22          6           0       -6.404136   -0.819592    0.007296
     23          6           0       -5.014085   -1.009614    0.133162
     24         16           0       -7.507756   -2.287528    0.127541
     25         16           0        7.443737   -2.174483   -0.182958
     26          8           0        8.779750   -1.702812   -0.580507
     27          8           0        7.500455   -2.609056    1.424536
     28          8           0        6.760057   -3.280379   -0.888180
     29          8           0       -7.381667   -2.845744   -1.260668
     30          8           0       -6.852973   -3.107325    1.198552
     31          8           0       -8.842612   -1.700220    0.467335
     32          1           0        6.494918    2.632860    0.175452
     33          1           0        4.566215   -1.992967   -0.202896
     34          1           0        7.982691    0.631444    0.027551
     35          1           0        2.155155   -0.281548    0.798401
     36          1           0        2.189366   -0.152116   -0.968487
     37          1           0        4.882804    4.033539    0.318089
     38          1           0        3.400603    4.307573   -0.637696
     39          1           0        3.310850    4.179674    1.147061
     40          1           0        1.212087    3.512441    0.160183
     41          1           0       -1.284061    3.501550    0.105833
     42          1           0       -0.044082    0.680326   -0.070292
     43          1           0       -3.978556    4.218540   -0.917045
     44          1           0       -4.951507    3.887123    0.550341
     45          1           0       -3.207431    4.217103    0.704596
     46          1           0       -2.040095   -0.371771    0.350599
     47          1           0       -2.518749   -0.028605   -1.332346
     48          1           0       -6.540960    2.563294   -0.550464
     49          1           0       -8.025172    0.526486   -0.353537
     50          1           0       -4.640088   -2.015560    0.334005
     51          1           0        7.435383   -3.583593    1.426747
 ---------------------------------------------------------------------

 The electronic state is 1-A.
 Alpha  occ. eigenvalues --  -89.15056 -89.01708 -19.21194 -19.16788 -19.16668
 Alpha  occ. eigenvalues --  -19.02767 -19.02748 -19.02742 -14.45549 -14.45239
 Alpha  occ. eigenvalues --  -10.31155 -10.30785 -10.29773 -10.29334 -10.28425
 Alpha  occ. eigenvalues --  -10.27066 -10.26978 -10.26687 -10.26063 -10.25913
 Alpha  occ. eigenvalues --  -10.25734 -10.25590 -10.25076 -10.25029 -10.24956
 Alpha  occ. eigenvalues --  -10.24677 -10.21782 -10.21349 -10.19601 -10.19179
 Alpha  occ. eigenvalues --  -10.18863  -8.18216  -8.04547  -6.14639  -6.14485
 Alpha  occ. eigenvalues --   -6.14344  -6.00876  -6.00849  -6.00842  -1.15899
 Alpha  occ. eigenvalues --   -1.06068  -1.05355  -1.05265  -1.03198  -1.01620
 Alpha  occ. eigenvalues --   -0.92400  -0.88798  -0.88376  -0.88078  -0.87707
 Alpha  occ. eigenvalues --   -0.86785  -0.84644  -0.82720  -0.81003  -0.78233
 Alpha  occ. eigenvalues --   -0.77172  -0.76491  -0.74786  -0.73435  -0.71598
 Alpha  occ. eigenvalues --   -0.68265  -0.66459  -0.65001  -0.62991  -0.62204
 Alpha  occ. eigenvalues --   -0.60828  -0.59852  -0.58735  -0.57306  -0.56739
 Alpha  occ. eigenvalues --   -0.54781  -0.54469  -0.54244  -0.53948  -0.53204
 Alpha  occ. eigenvalues --   -0.52008  -0.51486  -0.50988  -0.49857  -0.49168
 Alpha  occ. eigenvalues --   -0.48571  -0.48350  -0.48245  -0.47489  -0.47166
 Alpha  occ. eigenvalues --   -0.46389  -0.46078  -0.45552  -0.45345  -0.44556
 Alpha  occ. eigenvalues --   -0.44005  -0.43578  -0.43347  -0.41949  -0.41306
 Alpha  occ. eigenvalues --   -0.40920  -0.40726  -0.40173  -0.39143  -0.38600
 Alpha  occ. eigenvalues --   -0.37920  -0.36607  -0.36278  -0.36135  -0.35262
 Alpha  occ. eigenvalues --   -0.34502  -0.34268  -0.34178  -0.32246  -0.31491
 Alpha  occ. eigenvalues --   -0.31235  -0.27315  -0.26602  -0.24137  -0.23666
 Alpha  occ. eigenvalues --   -0.23525  -0.20845  -0.20568  -0.19633  -0.16491
 Alpha virt. eigenvalues --   -0.13826  -0.07454  -0.07334  -0.03923  -0.02003
 Alpha virt. eigenvalues --   -0.01181  -0.00147   0.00564   0.01142   0.01556
 Alpha virt. eigenvalues --    0.02485   0.03278   0.03933   0.04720   0.05134

 Mulliken atomic charges:
              1
     1  C   -0.002898
     2  C    0.245820
     3  C   -0.139052
     4  C    0.051353
     5  C   -0.250269
     6  C    0.111781
     7  C    0.158116
     8  C    0.068001
     9  N   -0.299733
    10  C    0.075977
    11  C   -0.060432
    12  C   -0.041134
    13  C    0.063383
    14  C    0.070258
    15  N   -0.230754
    16  C    0.105199
    17  C    0.096560
    18  C   -0.078352
    19  C    0.156172
    20  C   -0.022372
    21  C    0.104604
    22  C   -0.245518
    23  C    0.078832
    24  S    0.985872
    25  S    0.995815
    26  O   -0.409602
    27  O   -0.324255
    28  O   -0.437619
    29  O   -0.518959
    30  O   -0.525294
    31  O   -0.519825
    32  H   -0.005472
    33  H   -0.014073
    34  H    0.004961
    35  H    0.081714
    36  H    0.082561
    37  H    0.055419
    38  H    0.058845
    39  H    0.059331
    40  H   -0.031181
    41  H   -0.026787
    42  H   -0.011337
    43  H    0.062866
    44  H    0.072994
    45  H    0.060443
    46  H    0.056608
    47  H    0.087929
    48  H   -0.023243
    49  H   -0.005712
    50  H   -0.018900
    51  H    0.191361
 Sum of Mulliken atomic charges =   0.00000

 Dipole moment (field-independent basis, Debye):
    X=             21.9503    Y=             18.8345    Z=              0.9129  Tot=             28.9376
 Quadrupole moment (field-independent basis, Debye-Ang):
   XX=           -384.9932   YY=           -179.1544   ZZ=           -202.6842
   XY=            -67.8887   XZ=             19.0464   YZ=             -4.9594

 Normal termination of Gaussian 09 at Thu Mar 19 04:24:06 2015.
