 Gaussian 09, Revision B.01,
 Gaussian 09:  EM64L-G09RevB.01 12-Aug-2010

 ------------------------------------------------------
 # opt=modredundant B3LYP/cc-pVDZ Geom=PrintInputOrient
 ------------------------------------------------------

 -------------------------------
 CY3 Dihedral Scan at MP2/6-31G*
 -------------------------------
 Symbolic Z-matrix:
 Charge =  0 Multiplicity = 1

 SCF Done:  E(RB3LYP) =  -2169.39489223     A.U. after   31 cycles
 SCF Done:  E(RB3LYP) =  -2169.39489900     A.U. after    8 cycles
 SCF Done:  E(RB3LYP) =  -2169.39489939     A.U. after    8 cycles
 Optimization completed.
    -- Stationary point found.
 SCF Done:  E(RB3LYP) =  -2169.39310895     A.U. after   14 cycles
 SCF Done:  E(RB3LYP) =  -2169.39314560     A.U. after    8 cycles
 SCF Done:  E(RB3LYP) =  -2169.39381259     A.U. after   12 cycles
 SCF Done:  E(RB3LYP) =  -2169.39384641     A.U. after   11 cycles
 SCF Done:  E(RB3LYP) =  -2169.39385108     A.U. after   10 cycles
 SCF Done:  E(RB3LYP) =  -2169.39385457     A.U. after    9 cycles
 SCF Done:  E(RB3LYP) =  -2169.39385976     A.U. after   10 cycles
 Optimization completed.
    -- Stationary point found.
 SCF Done:  E(RB3LYP) =  -2169.38935705     A.U. after   13 cycles
 SCF Done:  E(RB3LYP) =  -2169.39076391     A.U. after   12 cycles
 SCF Done:  E(RB3LYP) =  -2169.39093200     A.U. after   13 cycles
 SCF Done:  E(RB3LYP) =  -2169.39095806     A.U. after   10 cycles
 SCF Done:  E(RB3LYP) =  -2169.39097361     A.U. after   11 cycles
 SCF Done:  E(RB3LYP) =  -2169.39098038     A.U. after   10 cycles
 SCF Done:  E(RB3LYP) =  -2169.39098589     A.U. after   11 cycles
 SCF Done:  E(RB3LYP) =  -2169.39098697     A.U. after   10 cycles
 SCF Done:  E(RB3LYP) =  -2169.39098709     A.U. after    7 cycles
 SCF Done:  E(RB3LYP) =  -2169.39098717     A.U. after    7 cycles
 Optimization completed.
    -- Stationary point found.

                         Standard orientation:
 ---------------------------------------------------------------------
 Center     Atomic      Atomic             Coordinates (Angstroms)
 Number     Number       Type             X           Y           Z
 ---------------------------------------------------------------------
      1          6           0        6.061357    1.632284   -0.028878
      2          6           0        4.683654    1.415678   -0.081183
      3          6           0        4.128640    0.123775   -0.107964
      4          6           0        4.951642   -0.989282   -0.086004
      5          6           0        6.337740   -0.771941   -0.019377
      6          6           0        6.894772    0.508007   -0.002054
      7          6           0        2.628718    0.257228   -0.197833
      8          6           0        2.417560    1.763301   -0.168424
      9          7           0        3.655676    2.374516   -0.121960
     10          6           0        3.912103    3.752281   -0.525817
     11          6           0        1.219905    2.428274   -0.020498
     12          6           0       -1.254299    2.425547    0.103609
     13          6           0       -0.041222    1.782855   -0.039741
     14          6           0       -3.985559    3.739178    0.383275
     15          7           0       -3.700271    2.319254    0.222139
     16          6           0       -2.494080    1.744133    0.098913
     17          6           0       -2.694330    0.248820   -0.043491
     18          6           0       -4.191610    0.089502    0.017393
     19          6           0       -4.750635    1.367162    0.180971
     20          6           0       -6.125959    1.582882    0.291005
     21          6           0       -6.945689    0.453915    0.220032
     22          6           0       -6.402202   -0.828439    0.040489
     23          6           0       -5.013415   -1.022883   -0.046691
     24         16           0       -7.515628   -2.285457   -0.127033
     25         16           0        7.430973   -2.191214   -0.004532
     26          8           0        8.778623   -1.754464   -0.402766
     27          8           0        7.446366   -2.503330    1.632071
     28          8           0        6.760417   -3.345936   -0.640948
     29          8           0       -7.698114   -2.335373   -1.615748
     30          8           0       -6.695329   -3.401056    0.448968
     31          8           0       -8.728876   -1.887065    0.655804
     32          1           0        6.488492    2.635140   -0.005819
     33          1           0        4.558059   -2.005437   -0.134565
     34          1           0        7.978938    0.618769    0.026044
     35          1           0        2.106285   -0.236859    0.636010
     36          1           0        2.232196   -0.179165   -1.131012
     37          1           0        4.769203    3.775490   -1.214594
     38          1           0        3.033267    4.149630   -1.049452
     39          1           0        4.134260    4.399159    0.338637
     40          1           0        1.235137    3.513876    0.104138
     41          1           0       -1.249708    3.510427    0.226782
     42          1           0       -0.049114    0.696620   -0.171934
     43          1           0       -4.660494    4.065953   -0.421285
     44          1           0       -4.483373    3.905533    1.350303
     45          1           0       -3.065278    4.328705    0.342814
     46          1           0       -2.175110   -0.288837    0.767383
     47          1           0       -2.265436   -0.110109   -0.993978
     48          1           0       -6.551003    2.578023    0.434134
     49          1           0       -8.029868    0.534421    0.316588
     50          1           0       -4.636828   -2.042686   -0.148052
     51          1           0        7.369766   -3.474182    1.706221
 ---------------------------------------------------------------------

 The electronic state is 1-A.
 Alpha  occ. eigenvalues --  -89.14992 -89.01721 -19.21136 -19.16734 -19.16608
 Alpha  occ. eigenvalues --  -19.02780 -19.02770 -19.02695 -14.46074 -14.44761
 Alpha  occ. eigenvalues --  -10.31147 -10.31121 -10.29360 -10.29063 -10.28692
 Alpha  occ. eigenvalues --  -10.27009 -10.26963 -10.26626 -10.25949 -10.25813
 Alpha  occ. eigenvalues --  -10.25619 -10.25408 -10.25276 -10.25195 -10.25130
 Alpha  occ. eigenvalues --  -10.24689 -10.22041 -10.21381 -10.19567 -10.19280
 Alpha  occ. eigenvalues --  -10.18861  -8.18153  -8.04556  -6.14576  -6.14422
 Alpha  occ. eigenvalues --   -6.14281  -6.00886  -6.00860  -6.00851  -1.15840
 Alpha  occ. eigenvalues --   -1.05752  -1.05621  -1.05297  -1.03140  -1.01620
 Alpha  occ. eigenvalues --   -0.92197  -0.88891  -0.88368  -0.88086  -0.87856
 Alpha  occ. eigenvalues --   -0.86804  -0.84721  -0.82635  -0.80972  -0.78172
 Alpha  occ. eigenvalues --   -0.77265  -0.76402  -0.74985  -0.73609  -0.71567
 Alpha  occ. eigenvalues --   -0.68305  -0.66347  -0.65045  -0.63102  -0.62416
 Alpha  occ. eigenvalues --   -0.60834  -0.60108  -0.58492  -0.57166  -0.56806
 Alpha  occ. eigenvalues --   -0.54901  -0.54482  -0.53983  -0.53926  -0.53411
 Alpha  occ. eigenvalues --   -0.52171  -0.51348  -0.50687  -0.49662  -0.49116
 Alpha  occ. eigenvalues --   -0.48660  -0.48557  -0.48258  -0.47495  -0.47209
 Alpha  occ. eigenvalues --   -0.46760  -0.46136  -0.45517  -0.45360  -0.44412
 Alpha  occ. eigenvalues --   -0.44104  -0.43434  -0.43180  -0.42141  -0.41440
 Alpha  occ. eigenvalues --   -0.41036  -0.40676  -0.40312  -0.39076  -0.38408
 Alpha  occ. eigenvalues --   -0.38279  -0.36701  -0.36307  -0.36209  -0.35371
 Alpha  occ. eigenvalues --   -0.34720  -0.34212  -0.34118  -0.32200  -0.31385
 Alpha  occ. eigenvalues --   -0.31169  -0.27383  -0.26680  -0.24286  -0.23660
 Alpha  occ. eigenvalues --   -0.23551  -0.20850  -0.20616  -0.19656  -0.16490
 Alpha virt. eigenvalues --   -0.13854  -0.07430  -0.07235  -0.04157  -0.01984
 Alpha virt. eigenvalues --   -0.00262   0.00034   0.00498   0.01254   0.01539
 Alpha virt. eigenvalues --    0.02220   0.03416   0.03792   0.04526   0.05249

 Mulliken atomic charges:
              1
     1  C   -0.005281
     2  C    0.247937
     3  C   -0.131411
     4  C    0.048465
     5  C   -0.250545
     6  C    0.108966
     7  C    0.156454
     8  C    0.039774
     9  N   -0.293716
    10  C    0.068380
    11  C   -0.037519
    12  C   -0.038248
    13  C    0.063227
    14  C    0.072972
    15  N   -0.250841
    16  C    0.058021
    17  C    0.149291
    18  C   -0.113171
    19  C    0.214602
    20  C   -0.007725
    21  C    0.106401
    22  C   -0.242685
    23  C    0.045227
    24  S    0.986418
    25  S    0.995925
    26  O   -0.409811
    27  O   -0.324186
    28  O   -0.438087
    29  O   -0.517555
    30  O   -0.525236
    31  O   -0.520085
    32  H   -0.011424
    33  H   -0.014161
    34  H    0.005622
    35  H    0.078386
    36  H    0.081356
    37  H    0.059318
    38  H    0.055601
    39  H    0.055256
    40  H   -0.025208
    41  H   -0.022565
    42  H   -0.007604
    43  H    0.073022
    44  H    0.071986
    45  H    0.054307
    46  H    0.081356
    47  H    0.082259
    48  H   -0.031981
    49  H   -0.006393
    50  H   -0.026288
    51  H    0.191199
 Sum of Mulliken atomic charges =   0.00000

 Dipole moment (field-independent basis, Debye):
    X=             21.5838    Y=             18.8943    Z=              1.9013  Tot=             28.7484
 Quadrupole moment (field-independent basis, Debye-Ang):
   XX=           -387.5478   YY=           -180.7735   ZZ=           -201.1067
   XY=            -67.8596   XZ=              0.7596   YZ=             -8.2714

 Normal termination of Gaussian 09 at Fri Mar 20 23:07:52 2015.
