 Gaussian 09, Revision B.01,
 Gaussian 09:  EM64L-G09RevB.01 12-Aug-2010

 ------------------------------------------------------
 # opt=modredundant B3LYP/cc-pVDZ Geom=PrintInputOrient
 ------------------------------------------------------

 -------------------------------
 CY3 Dihedral Scan at MP2/6-31G*
 -------------------------------
 Symbolic Z-matrix:
 Charge =  0 Multiplicity = 1

 SCF Done:  E(RB3LYP) =  -2169.39489223     A.U. after   31 cycles
 SCF Done:  E(RB3LYP) =  -2169.39489902     A.U. after    8 cycles
 SCF Done:  E(RB3LYP) =  -2169.39489943     A.U. after    8 cycles
 Optimization completed.
    -- Stationary point found.
 SCF Done:  E(RB3LYP) =  -2169.39366257     A.U. after   12 cycles
 SCF Done:  E(RB3LYP) =  -2169.39371295     A.U. after   10 cycles
 SCF Done:  E(RB3LYP) =  -2169.39406328     A.U. after   11 cycles
 SCF Done:  E(RB3LYP) =  -2169.39407803     A.U. after   10 cycles
 SCF Done:  E(RB3LYP) =  -2169.39407941     A.U. after    8 cycles
 SCF Done:  E(RB3LYP) =  -2169.39407966     A.U. after    7 cycles
 SCF Done:  E(RB3LYP) =  -2169.39407971     A.U. after    7 cycles
 SCF Done:  E(RB3LYP) =  -2169.39407975     A.U. after    6 cycles
 SCF Done:  E(RB3LYP) =  -2169.39407977     A.U. after    7 cycles
 SCF Done:  E(RB3LYP) =  -2169.39407981     A.U. after    7 cycles
 SCF Done:  E(RB3LYP) =  -2169.39407984     A.U. after    6 cycles
 Optimization completed.
    -- Stationary point found.
 SCF Done:  E(RB3LYP) =  -2169.39031495     A.U. after   13 cycles
 SCF Done:  E(RB3LYP) =  -2169.39151446     A.U. after   24 cycles
 SCF Done:  E(RB3LYP) =  -2169.39154068     A.U. after   11 cycles
 SCF Done:  E(RB3LYP) =  -2169.39154722     A.U. after   11 cycles
 SCF Done:  E(RB3LYP) =  -2169.39154774     A.U. after    8 cycles
 SCF Done:  E(RB3LYP) =  -2169.39154779     A.U. after    7 cycles
 Optimization completed.
    -- Stationary point found.

                         Standard orientation:
 ---------------------------------------------------------------------
 Center     Atomic      Atomic             Coordinates (Angstroms)
 Number     Number       Type             X           Y           Z
 ---------------------------------------------------------------------
      1          6           0       -6.069885    1.632642   -0.061122
      2          6           0       -4.690888    1.428320    0.021233
      3          6           0       -4.136049    0.135375    0.040506
      4          6           0       -4.956744   -0.979896    0.075068
      5          6           0       -6.343788   -0.768494    0.053104
      6          6           0       -6.902249    0.509412   -0.014573
      7          6           0       -2.635756    0.259895   -0.046708
      8          6           0       -2.422873    1.763412   -0.079175
      9          7           0       -3.657245    2.381694   -0.086813
     10          6           0       -3.809784    3.779750    0.296937
     11          6           0       -1.221335    2.436650   -0.066319
     12          6           0        1.256151    2.432328   -0.052671
     13          6           0        0.037533    1.785134   -0.054836
     14          6           0        3.996440    3.754817   -0.027538
     15          7           0        3.704673    2.327070   -0.033518
     16          6           0        2.494424    1.747684   -0.042753
     17          6           0        2.688637    0.244897   -0.044856
     18          6           0        4.187171    0.086072   -0.036301
     19          6           0        4.752475    1.371174   -0.032676
     20          6           0        6.131621    1.591710   -0.041850
     21          6           0        6.947824    0.458408   -0.044083
     22          6           0        6.397064   -0.833658   -0.030414
     23          6           0        5.006220   -1.030572   -0.042444
     24         16           0        7.504939   -2.302655    0.044704
     25         16           0       -7.433788   -2.188053    0.129790
     26          8           0       -8.775672   -1.734232    0.529060
     27          8           0       -7.471918   -2.578291   -1.490076
     28          8           0       -6.750994   -3.308694    0.811788
     29          8           0        7.659783   -2.468167    1.528076
     30          8           0        6.696377   -3.368516   -0.633122
     31          8           0        8.733155   -1.845565   -0.680708
     32          1           0       -6.504075    2.630402   -0.131574
     33          1           0       -4.556205   -1.993595    0.117859
     34          1           0       -7.986654    0.619252   -0.034562
     35          1           0       -2.238332   -0.223054   -0.954969
     36          1           0       -2.116146   -0.194471    0.812534
     37          1           0       -4.875092    4.025828    0.367813
     38          1           0       -3.331207    3.966660    1.272522
     39          1           0       -3.355960    4.441611   -0.456130
     40          1           0       -1.227284    3.528503   -0.076998
     41          1           0        1.258284    3.524132   -0.062552
     42          1           0        0.038548    0.690906   -0.047738
     43          1           0        4.643253    3.986652    0.831068
     44          1           0        4.527636    4.025532   -0.952443
     45          1           0        3.075745    4.340308    0.047778
     46          1           0        2.217484   -0.204164   -0.935059
     47          1           0        2.206962   -0.208548    0.837503
     48          1           0        6.561867    2.594701   -0.056478
     49          1           0        8.035396    0.545122   -0.072420
     50          1           0        4.627871   -2.054446   -0.069416
     51          1           0       -7.435601   -3.553999   -1.517655
 ---------------------------------------------------------------------

 The electronic state is 1-A.
 Alpha  occ. eigenvalues --  -89.14991 -89.01731 -19.21148 -19.16721 -19.16612
 Alpha  occ. eigenvalues --  -19.02799 -19.02773 -19.02703 -14.46103 -14.44738
 Alpha  occ. eigenvalues --  -10.31169 -10.30915 -10.29496 -10.29017 -10.28709
 Alpha  occ. eigenvalues --  -10.27013 -10.26933 -10.26634 -10.25942 -10.25819
 Alpha  occ. eigenvalues --  -10.25620 -10.25460 -10.25291 -10.25213 -10.25142
 Alpha  occ. eigenvalues --  -10.24646 -10.22063 -10.21391 -10.19557 -10.19316
 Alpha  occ. eigenvalues --  -10.18874  -8.18153  -8.04566  -6.14577  -6.14421
 Alpha  occ. eigenvalues --   -6.14282  -6.00896  -6.00870  -6.00861  -1.15831
 Alpha  occ. eigenvalues --   -1.05778  -1.05585  -1.05301  -1.03129  -1.01630
 Alpha  occ. eigenvalues --   -0.92254  -0.88832  -0.88376  -0.88100  -0.87873
 Alpha  occ. eigenvalues --   -0.86753  -0.84773  -0.82693  -0.80952  -0.78146
 Alpha  occ. eigenvalues --   -0.77276  -0.76410  -0.74969  -0.73603  -0.71569
 Alpha  occ. eigenvalues --   -0.68313  -0.66364  -0.65026  -0.63117  -0.62427
 Alpha  occ. eigenvalues --   -0.60765  -0.60118  -0.58489  -0.57161  -0.56816
 Alpha  occ. eigenvalues --   -0.54894  -0.54548  -0.54021  -0.53928  -0.53433
 Alpha  occ. eigenvalues --   -0.52198  -0.51324  -0.50773  -0.49620  -0.49091
 Alpha  occ. eigenvalues --   -0.48668  -0.48571  -0.48232  -0.47488  -0.47101
 Alpha  occ. eigenvalues --   -0.46773  -0.46130  -0.45469  -0.45364  -0.44471
 Alpha  occ. eigenvalues --   -0.44108  -0.43466  -0.43223  -0.42143  -0.41443
 Alpha  occ. eigenvalues --   -0.41001  -0.40697  -0.40286  -0.39142  -0.38428
 Alpha  occ. eigenvalues --   -0.38300  -0.36729  -0.36323  -0.36209  -0.35393
 Alpha  occ. eigenvalues --   -0.34731  -0.34201  -0.34175  -0.32141  -0.31333
 Alpha  occ. eigenvalues --   -0.31185  -0.27412  -0.26692  -0.24337  -0.23668
 Alpha  occ. eigenvalues --   -0.23563  -0.20868  -0.20620  -0.19667  -0.16500
 Alpha virt. eigenvalues --   -0.13844  -0.07561  -0.07254  -0.03995  -0.01977
 Alpha virt. eigenvalues --   -0.00245  -0.00082   0.00465   0.01187   0.01486
 Alpha virt. eigenvalues --    0.02450   0.03145   0.03796   0.04374   0.05174

 Mulliken atomic charges:
              1
     1  C    0.005126
     2  C    0.222957
     3  C   -0.131997
     4  C    0.055172
     5  C   -0.250110
     6  C    0.111405
     7  C    0.153287
     8  C    0.063860
     9  N   -0.291295
    10  C    0.073419
    11  C   -0.053146
    12  C   -0.037293
    13  C    0.060869
    14  C    0.072748
    15  N   -0.250983
    16  C    0.058665
    17  C    0.149818
    18  C   -0.112129
    19  C    0.214223
    20  C   -0.008228
    21  C    0.108893
    22  C   -0.242605
    23  C    0.042068
    24  S    0.986226
    25  S    0.994619
    26  O   -0.410014
    27  O   -0.324785
    28  O   -0.437042
    29  O   -0.517163
    30  O   -0.525095
    31  O   -0.520082
    32  H   -0.006681
    33  H   -0.014671
    34  H    0.004852
    35  H    0.080830
    36  H    0.079989
    37  H    0.053258
    38  H    0.054756
    39  H    0.058649
    40  H   -0.032025
    41  H   -0.022684
    42  H   -0.008087
    43  H    0.073375
    44  H    0.071874
    45  H    0.054554
    46  H    0.081867
    47  H    0.082008
    48  H   -0.031897
    49  H   -0.006400
    50  H   -0.026118
    51  H    0.191159
 Sum of Mulliken atomic charges =   0.00000

 Dipole moment (field-independent basis, Debye):
    X=            -21.5530    Y=             18.8967    Z=             -1.7289  Tot=             28.7159
 Quadrupole moment (field-independent basis, Debye-Ang):
   XX=           -385.3093   YY=           -179.9622   ZZ=           -202.5741
   XY=             69.6603   XZ=              8.5641   YZ=              8.9626

 Normal termination of Gaussian 09 at Sat Mar 21 04:30:47 2015.
