 Gaussian 09, Revision B.01,
 Gaussian 09:  EM64L-G09RevB.01 12-Aug-2010

 ------------------------------------------------------
 # opt=modredundant B3LYP/cc-pVDZ Geom=PrintInputOrient
 ------------------------------------------------------

 -------------------------------
 CY3 Dihedral Scan at MP2/6-31G*
 -------------------------------
 Symbolic Z-matrix:
 Charge =  0 Multiplicity = 1

 SCF Done:  E(RB3LYP) =  -2169.39489223     A.U. after   31 cycles
 SCF Done:  E(RB3LYP) =  -2169.39489903     A.U. after    8 cycles
 SCF Done:  E(RB3LYP) =  -2169.39489944     A.U. after    8 cycles
 Optimization completed.
    -- Stationary point found.
 SCF Done:  E(RB3LYP) =  -2169.39175857     A.U. after   13 cycles
 SCF Done:  E(RB3LYP) =  -2169.39177479     A.U. after    9 cycles
 SCF Done:  E(RB3LYP) =  -2169.39190164     A.U. after   11 cycles
 SCF Done:  E(RB3LYP) =  -2169.39191249     A.U. after   10 cycles
 SCF Done:  E(RB3LYP) =  -2169.39191706     A.U. after   10 cycles
 SCF Done:  E(RB3LYP) =  -2169.39192054     A.U. after   10 cycles
 SCF Done:  E(RB3LYP) =  -2169.39192439     A.U. after   10 cycles
 Optimization completed.
    -- Stationary point found.
 SCF Done:  E(RB3LYP) =  -2169.38271024     A.U. after   10 cycles
 SCF Done:  E(RB3LYP) =  -2169.38271157     A.U. after   10 cycles
 SCF Done:  E(RB3LYP) =  -2169.38271265     A.U. after   11 cycles
 SCF Done:  E(RB3LYP) =  -2169.38271296     A.U. after    9 cycles
 SCF Done:  E(RB3LYP) =  -2169.38271303     A.U. after    8 cycles
 SCF Done:  E(RB3LYP) =  -2169.38271314     A.U. after    8 cycles
 SCF Done:  E(RB3LYP) =  -2169.38271327     A.U. after    7 cycles
 SCF Done:  E(RB3LYP) =  -2169.38271349     A.U. after    9 cycles
 SCF Done:  E(RB3LYP) =  -2169.38271372     A.U. after    9 cycles
 SCF Done:  E(RB3LYP) =  -2169.38271375     A.U. after    7 cycles
 Optimization completed.
    -- Stationary point found.

                         Standard orientation:
 ---------------------------------------------------------------------
 Center     Atomic      Atomic             Coordinates (Angstroms)
 Number     Number       Type             X           Y           Z
 ---------------------------------------------------------------------
      1          6           0        6.062034    1.606320    0.125432
      2          6           0        4.683404    1.421148   -0.009517
      3          6           0        4.131609    0.121878   -0.002065
      4          6           0        4.956303   -0.990699    0.065902
      5          6           0        6.347367   -0.779773   -0.007146
      6          6           0        6.864019    0.503693   -0.203873
      7          6           0        2.628053    0.249638   -0.017801
      8          6           0        2.412343    1.754293   -0.004726
      9          7           0        3.645429    2.364582    0.000069
     10          6           0        3.834257    3.804614    0.000584
     11          6           0        1.211468    2.431010    0.002238
     12          6           0       -1.266367    2.429775    0.003188
     13          6           0       -0.047570    1.781802   -0.005469
     14          6           0       -4.005903    3.753325   -0.001689
     15          7           0       -3.714835    2.325598    0.003938
     16          6           0       -2.504483    1.745785    0.003204
     17          6           0       -2.699233    0.242914    0.008445
     18          6           0       -4.197889    0.084616    0.015939
     19          6           0       -4.762871    1.369810    0.015717
     20          6           0       -6.141697    1.590546    0.039695
     21          6           0       -6.958162    0.457333    0.053558
     22          6           0       -6.407954   -0.834765    0.036711
     23          6           0       -5.017069   -1.031828    0.033529
     24         16           0       -7.516585   -2.304128   -0.021152
     25         16           0        7.438810   -2.193723   -0.134754
     26          8           0        8.635937   -1.791975   -0.888089
     27          8           0        7.889591   -2.360839    1.458962
     28          8           0        6.653159   -3.402005   -0.468870
     29          8           0       -7.681425   -2.480555   -1.502131
     30          8           0       -6.703454   -3.365184    0.658886
     31          8           0       -8.739958   -1.842088    0.709413
     32          1           0        6.505550    2.603017    0.161768
     33          1           0        4.557564   -2.003907    0.131688
     34          1           0        7.939946    0.626517   -0.338635
     35          1           0        2.157893   -0.227547    0.857476
     36          1           0        2.176560   -0.207211   -0.914117
     37          1           0        4.893907    4.034006   -0.157747
     38          1           0        3.254499    4.265341   -0.814299
     39          1           0        3.513123    4.245536    0.958566
     40          1           0        1.220658    3.522819    0.020333
     41          1           0       -1.267913    3.521577    0.014488
     42          1           0       -0.049538    0.687578   -0.017491
     43          1           0       -4.670070    3.981838   -0.847798
     44          1           0       -4.517738    4.028982    0.932726
     45          1           0       -3.086618    4.337815   -0.099333
     46          1           0       -2.218695   -0.205979    0.893642
     47          1           0       -2.227355   -0.211113   -0.878941
     48          1           0       -6.571597    2.593652    0.057279
     49          1           0       -8.045343    0.544264    0.093985
     50          1           0       -4.638361   -2.055607    0.058939
     51          1           0        7.643022   -3.274681    1.697432
 ---------------------------------------------------------------------

 The electronic state is 1-A.
 Alpha  occ. eigenvalues --  -89.15111 -89.01667 -19.21192 -19.16869 -19.16683
 Alpha  occ. eigenvalues --  -19.02733 -19.02709 -19.02632 -14.45996 -14.45174
 Alpha  occ. eigenvalues --  -10.31091 -10.31085 -10.29700 -10.29279 -10.28645
 Alpha  occ. eigenvalues --  -10.26983 -10.26973 -10.26634 -10.25905 -10.25769
 Alpha  occ. eigenvalues --  -10.25741 -10.25561 -10.25216 -10.25145 -10.25056
 Alpha  occ. eigenvalues --  -10.24654 -10.21986 -10.21319 -10.19492 -10.19243
 Alpha  occ. eigenvalues --  -10.18798  -8.18256  -8.04502  -6.14678  -6.14532
 Alpha  occ. eigenvalues --   -6.14383  -6.00832  -6.00805  -6.00797  -1.15976
 Alpha  occ. eigenvalues --   -1.05987  -1.05683  -1.05361  -1.03306  -1.01564
 Alpha  occ. eigenvalues --   -0.92334  -0.88857  -0.88310  -0.88034  -0.87800
 Alpha  occ. eigenvalues --   -0.86843  -0.84773  -0.82683  -0.80928  -0.78213
 Alpha  occ. eigenvalues --   -0.77258  -0.76509  -0.74927  -0.73576  -0.71577
 Alpha  occ. eigenvalues --   -0.68302  -0.66270  -0.65149  -0.63099  -0.62375
 Alpha  occ. eigenvalues --   -0.60848  -0.60108  -0.58658  -0.57461  -0.56805
 Alpha  occ. eigenvalues --   -0.54832  -0.54426  -0.54231  -0.53880  -0.53357
 Alpha  occ. eigenvalues --   -0.52140  -0.51215  -0.50841  -0.49786  -0.49332
 Alpha  occ. eigenvalues --   -0.48669  -0.48504  -0.48282  -0.47401  -0.46979
 Alpha  occ. eigenvalues --   -0.46714  -0.46099  -0.45489  -0.45333  -0.44708
 Alpha  occ. eigenvalues --   -0.44067  -0.43495  -0.43425  -0.42101  -0.41393
 Alpha  occ. eigenvalues --   -0.41056  -0.40612  -0.40330  -0.39008  -0.38285
 Alpha  occ. eigenvalues --   -0.38224  -0.36707  -0.36258  -0.36131  -0.35384
 Alpha  occ. eigenvalues --   -0.34665  -0.34369  -0.34261  -0.32567  -0.31100
 Alpha  occ. eigenvalues --   -0.31012  -0.27275  -0.26619  -0.24219  -0.23603
 Alpha  occ. eigenvalues --   -0.23496  -0.20802  -0.20557  -0.19598  -0.16436
 Alpha virt. eigenvalues --   -0.13778  -0.07810  -0.07381  -0.03931  -0.01917
 Alpha virt. eigenvalues --   -0.00215  -0.00071   0.00527   0.01052   0.01482
 Alpha virt. eigenvalues --    0.02420   0.03281   0.04010   0.04350   0.04764

 Mulliken atomic charges:
              1
     1  C    0.001247
     2  C    0.214256
     3  C   -0.133295
     4  C    0.061290
     5  C   -0.257755
     6  C    0.093306
     7  C    0.148765
     8  C    0.068207
     9  N   -0.291804
    10  C    0.077139
    11  C   -0.055337
    12  C   -0.038250
    13  C    0.061702
    14  C    0.072851
    15  N   -0.251557
    16  C    0.058764
    17  C    0.149733
    18  C   -0.112406
    19  C    0.214221
    20  C   -0.008414
    21  C    0.108432
    22  C   -0.242635
    23  C    0.042350
    24  S    0.986100
    25  S    1.001508
    26  O   -0.408063
    27  O   -0.321819
    28  O   -0.438751
    29  O   -0.517507
    30  O   -0.525461
    31  O   -0.520448
    32  H    0.000836
    33  H   -0.009321
    34  H    0.015960
    35  H    0.078832
    36  H    0.082588
    37  H    0.054143
    38  H    0.059601
    39  H    0.057107
    40  H   -0.031496
    41  H   -0.023393
    42  H   -0.008411
    43  H    0.073212
    44  H    0.071314
    45  H    0.054275
    46  H    0.081104
    47  H    0.082116
    48  H   -0.032168
    49  H   -0.006656
    50  H   -0.026344
    51  H    0.190332
 Sum of Mulliken atomic charges =   0.00000

 Dipole moment (field-independent basis, Debye):
    X=             21.8630    Y=             19.3088    Z=              2.0576  Tot=             29.2413
 Quadrupole moment (field-independent basis, Debye-Ang):
   XX=           -385.8245   YY=           -182.1639   ZZ=           -201.2800
   XY=            -67.4340   XZ=             12.2243   YZ=             -8.1850

 Normal termination of Gaussian 09 at Sat Mar 21 10:15:42 2015.
