 Gaussian 09, Revision B.01,
 Gaussian 09:  EM64L-G09RevB.01 12-Aug-2010

 ------------------------------------------------------
 # opt=modredundant B3LYP/cc-pVDZ Geom=PrintInputOrient
 ------------------------------------------------------

 -------------------------------
 CY3 Dihedral Scan at MP2/6-31G*
 -------------------------------
 Symbolic Z-matrix:
 Charge =  0 Multiplicity = 1

 SCF Done:  E(RB3LYP) =  -2169.39489223     A.U. after   31 cycles
 SCF Done:  E(RB3LYP) =  -2169.39489903     A.U. after    8 cycles
 SCF Done:  E(RB3LYP) =  -2169.39489944     A.U. after    8 cycles
 Optimization completed.
    -- Stationary point found.
 SCF Done:  E(RB3LYP) =  -2169.38937411     A.U. after   16 cycles
 SCF Done:  E(RB3LYP) =  -2169.39448581     A.U. after   16 cycles
 SCF Done:  E(RB3LYP) =  -2169.39479800     A.U. after   15 cycles
 SCF Done:  E(RB3LYP) =  -2169.39481073     A.U. after   10 cycles
 SCF Done:  E(RB3LYP) =  -2169.39481408     A.U. after   11 cycles
 SCF Done:  E(RB3LYP) =  -2169.39481433     A.U. after    7 cycles
 Optimization completed.
 SCF Done:  E(RB3LYP) =  -2169.38917756     A.U. after   17 cycles
 SCF Done:  E(RB3LYP) =  -2169.39482978     A.U. after   13 cycles
 SCF Done:  E(RB3LYP) =  -2169.39484097     A.U. after   11 cycles
 SCF Done:  E(RB3LYP) =  -2169.39484155     A.U. after   10 cycles
 SCF Done:  E(RB3LYP) =  -2169.39484158     A.U. after    7 cycles
    -- Stationary point found.
 SCF Done:  E(RB3LYP) =  -2169.38919564     A.U. after   18 cycles
 SCF Done:  E(RB3LYP) =  -2169.39447212     A.U. after   17 cycles
 SCF Done:  E(RB3LYP) =  -2169.39474339     A.U. after   14 cycles
 SCF Done:  E(RB3LYP) =  -2169.39475116     A.U. after   12 cycles
 SCF Done:  E(RB3LYP) =  -2169.39475202     A.U. after   10 cycles
 SCF Done:  E(RB3LYP) =  -2169.39475221     A.U. after    9 cycles
 Optimization completed.
    -- Stationary point found.

                         Standard orientation:
 ---------------------------------------------------------------------
 Center     Atomic      Atomic             Coordinates (Angstroms)
 Number     Number       Type             X           Y           Z
 ---------------------------------------------------------------------
      1          6           0        6.073381    1.633037   -0.013143
      2          6           0        4.694060    1.419178   -0.001578
      3          6           0        4.140943    0.124552   -0.027624
      4          6           0        4.964280   -0.987495   -0.061850
      5          6           0        6.351735   -0.771261   -0.059754
      6          6           0        6.906726    0.509471   -0.047047
      7          6           0        2.637524    0.250372   -0.026225
      8          6           0        2.421346    1.753793    0.005802
      9          7           0        3.653336    2.363477    0.022404
     10          6           0        3.833642    3.804206    0.052178
     11          6           0        1.220189    2.430615    0.014921
     12          6           0       -1.257713    2.429180    0.007091
     13          6           0       -0.038621    1.781506    0.000613
     14          6           0       -3.999416    3.751942    0.006373
     15          7           0       -3.706513    2.324695   -0.000991
     16          6           0       -2.495741    1.745384   -0.003161
     17          6           0       -2.691220    0.242733   -0.013725
     18          6           0       -4.189662    0.084428   -0.010512
     19          6           0       -4.753943    1.367865   -0.002841
     20          6           0       -6.134638    1.588251    0.002660
     21          6           0       -6.949974    0.456389    0.000712
     22          6           0       -6.398886   -0.837466   -0.006265
     23          6           0       -5.009979   -1.033784   -0.013368
     24         16           0       -7.519473   -2.299525    0.001728
     25         16           0        7.444767   -2.188333   -0.125056
     26          8           0        8.774410   -1.741361   -0.570252
     27          8           0        7.527214   -2.535600    1.502741
     28          8           0        6.748977   -3.329513   -0.758509
     29          8           0       -6.570057   -3.460170   -0.040200
     30          8           0       -8.262300   -2.113083    1.290524
     31          8           0       -8.334532   -2.078415   -1.236581
     32          1           0        6.508119    2.632557   -0.006292
     33          1           0        4.567387   -2.002707   -0.102625
     34          1           0        7.990671    0.622495   -0.073733
     35          1           0        2.176756   -0.236784    0.848819
     36          1           0        2.179447   -0.198610   -0.922766
     37          1           0        4.901918    4.041738    0.092453
     38          1           0        3.403218    4.269250   -0.849531
     39          1           0        3.345709    4.235864    0.940667
     40          1           0        1.229492    3.522372    0.033550
     41          1           0       -1.259257    3.520924    0.023541
     42          1           0       -0.040459    0.687307   -0.016282
     43          1           0       -4.625504    3.997456   -0.864013
     44          1           0       -4.553344    4.007690    0.922062
     45          1           0       -3.077770    4.339217   -0.036184
     46          1           0       -2.212533   -0.216141    0.867268
     47          1           0       -2.218338   -0.202267   -0.905124
     48          1           0       -6.564941    2.591210    0.009094
     49          1           0       -8.036406    0.555702    0.003829
     50          1           0       -4.640112   -2.061355   -0.020330
     51          1           0        7.479583   -3.509632    1.557618
 ---------------------------------------------------------------------

 The electronic state is 1-A.
 Alpha  occ. eigenvalues --  -89.15004 -89.01639 -19.21149 -19.16734 -19.16618
 Alpha  occ. eigenvalues --  -19.02746 -19.02614 -19.02610 -14.45966 -14.45121
 Alpha  occ. eigenvalues --  -10.31062 -10.31047 -10.29707 -10.29269 -10.28627
 Alpha  occ. eigenvalues --  -10.27009 -10.26941 -10.26621 -10.25996 -10.25856
 Alpha  occ. eigenvalues --  -10.25676 -10.25518 -10.25200 -10.25131 -10.25022
 Alpha  occ. eigenvalues --  -10.24614 -10.21993 -10.21280 -10.19442 -10.19298
 Alpha  occ. eigenvalues --  -10.18777  -8.18164  -8.04472  -6.14587  -6.14433
 Alpha  occ. eigenvalues --   -6.14293  -6.00802  -6.00776  -6.00766  -1.15843
 Alpha  occ. eigenvalues --   -1.05968  -1.05657  -1.05306  -1.03141  -1.01533
 Alpha  occ. eigenvalues --   -0.92333  -0.88834  -0.88275  -0.88010  -0.87785
 Alpha  occ. eigenvalues --   -0.86861  -0.84795  -0.82742  -0.80993  -0.78245
 Alpha  occ. eigenvalues --   -0.77226  -0.76546  -0.74936  -0.73590  -0.71635
 Alpha  occ. eigenvalues --   -0.68307  -0.66414  -0.65104  -0.63115  -0.62340
 Alpha  occ. eigenvalues --   -0.60843  -0.60077  -0.58695  -0.57274  -0.56780
 Alpha  occ. eigenvalues --   -0.54836  -0.54503  -0.54169  -0.53992  -0.53337
 Alpha  occ. eigenvalues --   -0.52182  -0.51450  -0.50943  -0.49794  -0.49114
 Alpha  occ. eigenvalues --   -0.48634  -0.48496  -0.48273  -0.47512  -0.47141
 Alpha  occ. eigenvalues --   -0.46705  -0.46072  -0.45506  -0.45300  -0.44501
 Alpha  occ. eigenvalues --   -0.44015  -0.43514  -0.43398  -0.42093  -0.41382
 Alpha  occ. eigenvalues --   -0.41018  -0.40668  -0.40469  -0.39148  -0.38449
 Alpha  occ. eigenvalues --   -0.38262  -0.36685  -0.36274  -0.36200  -0.35337
 Alpha  occ. eigenvalues --   -0.34617  -0.34218  -0.34153  -0.32175  -0.31432
 Alpha  occ. eigenvalues --   -0.31197  -0.27330  -0.26573  -0.24252  -0.23610
 Alpha  occ. eigenvalues --   -0.23424  -0.20962  -0.20326  -0.19582  -0.16401
 Alpha virt. eigenvalues --   -0.13738  -0.07411  -0.07275  -0.03819  -0.01831
 Alpha virt. eigenvalues --   -0.00186  -0.00125   0.00500   0.01070   0.01475
 Alpha virt. eigenvalues --    0.02524   0.03221   0.03891   0.04372   0.05127

 Mulliken atomic charges:
              1
     1  C   -0.003229
     2  C    0.246062
     3  C   -0.139572
     4  C    0.051197
     5  C   -0.250448
     6  C    0.111787
     7  C    0.158579
     8  C    0.066573
     9  N   -0.300102
    10  C    0.076146
    11  C   -0.060360
    12  C   -0.038064
    13  C    0.061560
    14  C    0.072942
    15  N   -0.252137
    16  C    0.058766
    17  C    0.150048
    18  C   -0.106595
    19  C    0.214416
    20  C   -0.012553
    21  C    0.126141
    22  C   -0.243394
    23  C    0.025123
    24  S    0.985852
    25  S    0.995374
    26  O   -0.409954
    27  O   -0.324573
    28  O   -0.437476
    29  O   -0.525315
    30  O   -0.520132
    31  O   -0.520195
    32  H   -0.005792
    33  H   -0.014244
    34  H    0.004719
    35  H    0.080538
    36  H    0.082253
    37  H    0.055114
    38  H    0.058437
    39  H    0.058642
    40  H   -0.032170
    41  H   -0.023481
    42  H   -0.008685
    43  H    0.072649
    44  H    0.071892
    45  H    0.054009
    46  H    0.081364
    47  H    0.082025
    48  H   -0.032352
    49  H   -0.007074
    50  H   -0.025449
    51  H    0.191141
 Sum of Mulliken atomic charges =   0.00000

 Dipole moment (field-independent basis, Debye):
    X=             21.9562    Y=             19.0448    Z=              1.5784  Tot=             29.1079
 Quadrupole moment (field-independent basis, Debye-Ang):
   XX=           -386.5738   YY=           -179.8556   ZZ=           -202.4202
   XY=            -68.6374   XZ=             12.4907   YZ=             -7.2152

 Normal termination of Gaussian 09 at Fri Mar 20 18:17:53 2015.
