 Gaussian 09, Revision B.01,
 Gaussian 09:  EM64L-G09RevB.01 12-Aug-2010

 ------------------------------------------------------
 # opt=modredundant B3LYP/cc-pVDZ Geom=PrintInputOrient
 ------------------------------------------------------

 -------------------------------
 CY3 Dihedral Scan at MP2/6-31G*
 -------------------------------
 Symbolic Z-matrix:
 Charge =  0 Multiplicity = 1

 SCF Done:  E(RB3LYP) =  -2169.39489223     A.U. after   31 cycles
 SCF Done:  E(RB3LYP) =  -2169.39489902     A.U. after    8 cycles
 SCF Done:  E(RB3LYP) =  -2169.39489943     A.U. after    8 cycles
 Optimization completed.
    -- Stationary point found.
 SCF Done:  E(RB3LYP) =  -2169.39349162     A.U. after   18 cycles
 SCF Done:  E(RB3LYP) =  -2169.39332534     A.U. after   10 cycles
 SCF Done:  E(RB3LYP) =  -2169.39370007     A.U. after   12 cycles
 SCF Done:  E(RB3LYP) =  -2169.39370821     A.U. after   10 cycles
 SCF Done:  E(RB3LYP) =  -2169.39370930     A.U. after    8 cycles
 SCF Done:  E(RB3LYP) =  -2169.39370998     A.U. after    8 cycles
 SCF Done:  E(RB3LYP) =  -2169.39371075     A.U. after   10 cycles
 Optimization completed.
    -- Stationary point found.
 SCF Done:  E(RB3LYP) =  -2169.39043226     A.U. after   10 cycles
 SCF Done:  E(RB3LYP) =  -2169.39043234     A.U. after    7 cycles
 SCF Done:  E(RB3LYP) =  -2169.39043251     A.U. after    9 cycles
 SCF Done:  E(RB3LYP) =  -2169.39043273     A.U. after   10 cycles
 SCF Done:  E(RB3LYP) =  -2169.39043299     A.U. after    7 cycles
 SCF Done:  E(RB3LYP) =  -2169.39043329     A.U. after   10 cycles
 SCF Done:  E(RB3LYP) =  -2169.39043363     A.U. after    9 cycles
 SCF Done:  E(RB3LYP) =  -2169.39043420     A.U. after   10 cycles
 SCF Done:  E(RB3LYP) =  -2169.39043432     A.U. after   10 cycles
 SCF Done:  E(RB3LYP) =  -2169.39043436     A.U. after    9 cycles
 Optimization completed on the basis of negligible forces.
    -- Stationary point found.

                         Standard orientation:
 ---------------------------------------------------------------------
 Center     Atomic      Atomic             Coordinates (Angstroms)
 Number     Number       Type             X           Y           Z
 ---------------------------------------------------------------------
      1          6           0        6.041868    1.606703    0.012941
      2          6           0        4.667555    1.422535   -0.147252
      3          6           0        4.092570    0.138985   -0.222692
      4          6           0        4.888659   -0.990165   -0.143695
      5          6           0        6.270046   -0.803430    0.027594
      6          6           0        6.847347    0.465278    0.096891
      7          6           0        2.601774    0.295849   -0.392549
      8          6           0        2.417023    1.803744   -0.405767
      9          7           0        3.654665    2.388636   -0.268708
     10          6           0        3.864910    3.825104   -0.263083
     11          6           0        1.237320    2.502302   -0.533519
     12          6           0       -1.207775    2.450316   -0.100173
     13          6           0       -0.038440    1.873961   -0.549148
     14          6           0       -3.810212    3.645412    0.850993
     15          7           0       -3.602756    2.285342    0.368601
     16          6           0       -2.446420    1.764888   -0.068393
     17          6           0       -2.695431    0.328466   -0.477365
     18          6           0       -4.157639    0.128594   -0.171800
     19          6           0       -4.657706    1.336686    0.340644
     20          6           0       -5.984252    1.491498    0.750261
     21          6           0       -6.817183    0.378678    0.616282
     22          6           0       -6.335881   -0.830101    0.087029
     23          6           0       -4.992718   -0.968942   -0.299259
     24         16           0       -7.480975   -2.255164   -0.135380
     25         16           0        7.330614   -2.243311    0.118257
     26          8           0        8.724107   -1.820967   -0.096923
     27          8           0        7.134250   -2.611266    1.731817
     28          8           0        6.727417   -3.362064   -0.638035
     29          8           0       -8.034653   -1.970541   -1.500453
     30          8           0       -6.563148   -3.438612   -0.054017
     31          8           0       -8.450335   -2.094997    0.995315
     32          1           0        6.494659    2.596773    0.067267
     33          1           0        4.475713   -1.996931   -0.219726
     34          1           0        7.928127    0.554487    0.208244
     35          1           0        2.036848   -0.165820    0.433213
     36          1           0        2.233381   -0.158190   -1.327865
     37          1           0        4.938523    4.040744   -0.242097
     38          1           0        3.435513    4.277666   -1.170796
     39          1           0        3.394968    4.288309    0.620226
     40          1           0        1.261631    3.588505   -0.416774
     41          1           0       -1.174417    3.484848    0.247910
     42          1           0       -0.070765    0.817095   -0.835492
     43          1           0       -4.789065    3.997897    0.500910
     44          1           0       -3.795846    3.667407    1.951930
     45          1           0       -3.036323    4.313536    0.458362
     46          1           0       -2.043428   -0.355793    0.090590
     47          1           0       -2.459227    0.184676   -1.545077
     48          1           0       -6.360491    2.425393    1.171815
     49          1           0       -7.859858    0.412821    0.936768
     50          1           0       -4.658305   -1.940435   -0.668939
     51          1           0        7.077194   -3.585813    1.764981
 ---------------------------------------------------------------------

 The electronic state is 1-A.
 Alpha  occ. eigenvalues --  -89.14931 -89.01749 -19.21093 -19.16639 -19.16560
 Alpha  occ. eigenvalues --  -19.02820 -19.02785 -19.02718 -14.46136 -14.44959
 Alpha  occ. eigenvalues --  -10.31126 -10.30962 -10.29629 -10.29172 -10.28734
 Alpha  occ. eigenvalues --  -10.27076 -10.26921 -10.26536 -10.25911 -10.25793
 Alpha  occ. eigenvalues --  -10.25590 -10.25421 -10.25376 -10.25227 -10.25201
 Alpha  occ. eigenvalues --  -10.24542 -10.22094 -10.21433 -10.19568 -10.19357
 Alpha  occ. eigenvalues --  -10.18895  -8.18092  -8.04584  -6.14516  -6.14360
 Alpha  occ. eigenvalues --   -6.14221  -6.00915  -6.00888  -6.00879  -1.15769
 Alpha  occ. eigenvalues --   -1.05844  -1.05806  -1.05248  -1.03052  -1.01649
 Alpha  occ. eigenvalues --   -0.92245  -0.88828  -0.88389  -0.88124  -0.87913
 Alpha  occ. eigenvalues --   -0.86819  -0.84773  -0.82720  -0.80972  -0.78239
 Alpha  occ. eigenvalues --   -0.77332  -0.76500  -0.74961  -0.73634  -0.71608
 Alpha  occ. eigenvalues --   -0.68336  -0.66330  -0.65094  -0.63086  -0.62438
 Alpha  occ. eigenvalues --   -0.60808  -0.60080  -0.58604  -0.57208  -0.56774
 Alpha  occ. eigenvalues --   -0.54924  -0.54516  -0.54063  -0.53974  -0.53496
 Alpha  occ. eigenvalues --   -0.52235  -0.51386  -0.50864  -0.49716  -0.49094
 Alpha  occ. eigenvalues --   -0.48759  -0.48550  -0.48230  -0.47478  -0.47084
 Alpha  occ. eigenvalues --   -0.46764  -0.46158  -0.45456  -0.45347  -0.44519
 Alpha  occ. eigenvalues --   -0.44089  -0.43429  -0.43417  -0.42243  -0.41442
 Alpha  occ. eigenvalues --   -0.40927  -0.40600  -0.40451  -0.39055  -0.38433
 Alpha  occ. eigenvalues --   -0.38333  -0.36641  -0.36351  -0.36169  -0.35304
 Alpha  occ. eigenvalues --   -0.34752  -0.34123  -0.34103  -0.32093  -0.31351
 Alpha  occ. eigenvalues --   -0.31199  -0.27262  -0.26704  -0.24319  -0.23683
 Alpha  occ. eigenvalues --   -0.23581  -0.20892  -0.20630  -0.19690  -0.16517
 Alpha virt. eigenvalues --   -0.13803  -0.07426  -0.07211  -0.03893  -0.02022
 Alpha virt. eigenvalues --   -0.00348  -0.00051   0.00554   0.01098   0.01415
 Alpha virt. eigenvalues --    0.01877   0.03365   0.03900   0.04507   0.05189

 Mulliken atomic charges:
              1
     1  C   -0.001133
     2  C    0.245313
     3  C   -0.143118
     4  C    0.054199
     5  C   -0.250541
     6  C    0.110405
     7  C    0.158311
     8  C    0.062521
     9  N   -0.296061
    10  C    0.074704
    11  C   -0.063607
    12  C   -0.032742
    13  C    0.052336
    14  C    0.069962
    15  N   -0.249856
    16  C    0.056415
    17  C    0.151103
    18  C   -0.112502
    19  C    0.208724
    20  C   -0.006862
    21  C    0.111407
    22  C   -0.242860
    23  C    0.041720
    24  S    0.986298
    25  S    0.994820
    26  O   -0.410607
    27  O   -0.324994
    28  O   -0.437476
    29  O   -0.516662
    30  O   -0.525197
    31  O   -0.520231
    32  H   -0.006278
    33  H   -0.015233
    34  H    0.004736
    35  H    0.077350
    36  H    0.083088
    37  H    0.055010
    38  H    0.060175
    39  H    0.056373
    40  H   -0.026936
    41  H   -0.022750
    42  H   -0.003170
    43  H    0.074153
    44  H    0.068598
    45  H    0.058126
    46  H    0.079455
    47  H    0.083958
    48  H   -0.029209
    49  H   -0.006531
    50  H   -0.025726
    51  H    0.191025
 Sum of Mulliken atomic charges =   0.00000

 Dipole moment (field-independent basis, Debye):
    X=             21.5699    Y=             18.7892    Z=              2.3483  Tot=             28.7021
 Quadrupole moment (field-independent basis, Debye-Ang):
   XX=           -389.4485   YY=           -180.7344   ZZ=           -199.2056
   XY=            -63.2528   XZ=             -3.0967   YZ=             -3.1055

 Normal termination of Gaussian 09 at Wed Mar 18 06:50:07 2015.
