 Gaussian 09, Revision B.01,
 Gaussian 09:  EM64L-G09RevB.01 12-Aug-2010

 ------------------------------------------------------
 # opt=modredundant B3LYP/cc-pVDZ Geom=PrintInputOrient
 ------------------------------------------------------

 -------------------------------
 CY3 Dihedral Scan at MP2/6-31G*
 -------------------------------
 Symbolic Z-matrix:
 Charge =  0 Multiplicity = 1

 SCF Done:  E(RB3LYP) =  -2169.39489223     A.U. after   31 cycles
 SCF Done:  E(RB3LYP) =  -2169.39489902     A.U. after    8 cycles
 SCF Done:  E(RB3LYP) =  -2169.39489943     A.U. after    8 cycles
 Optimization completed.
    -- Stationary point found.
 SCF Done:  E(RB3LYP) =  -2169.39343658     A.U. after   16 cycles
 SCF Done:  E(RB3LYP) =  -2169.39345369     A.U. after   11 cycles
 SCF Done:  E(RB3LYP) =  -2169.39370972     A.U. after   12 cycles
 SCF Done:  E(RB3LYP) =  -2169.39373526     A.U. after   11 cycles
 SCF Done:  E(RB3LYP) =  -2169.39373724     A.U. after    9 cycles
 SCF Done:  E(RB3LYP) =  -2169.39373774     A.U. after    8 cycles
 SCF Done:  E(RB3LYP) =  -2169.39373798     A.U. after    8 cycles
 SCF Done:  E(RB3LYP) =  -2169.39379291     A.U. after    7 cycles
 SCF Done:  E(RB3LYP) =  -2169.39379292     A.U. after    7 cycles
 Optimization completed on the basis of negligible forces.
    -- Stationary point found.
 SCF Done:  E(RB3LYP) =  -2169.38965023     A.U. after   17 cycles
 SCF Done:  E(RB3LYP) =  -2169.39055144     A.U. after   16 cycles
 SCF Done:  E(RB3LYP) =  -2169.39059963     A.U. after   16 cycles
 SCF Done:  E(RB3LYP) =  -2169.39050101     A.U. after   16 cycles
 SCF Done:  E(RB3LYP) =  -2169.39060564     A.U. after   12 cycles
 SCF Done:  E(RB3LYP) =  -2169.39061990     A.U. after   10 cycles
 SCF Done:  E(RB3LYP) =  -2169.39062200     A.U. after   10 cycles
 SCF Done:  E(RB3LYP) =  -2169.39062216     A.U. after    8 cycles
 Optimization completed.
    -- Stationary point found.

                         Standard orientation:
 ---------------------------------------------------------------------
 Center     Atomic      Atomic             Coordinates (Angstroms)
 Number     Number       Type             X           Y           Z
 ---------------------------------------------------------------------
      1          6           0        6.067724    1.631184   -0.086601
      2          6           0        4.689344    1.414066   -0.054254
      3          6           0        4.139366    0.118120   -0.035243
      4          6           0        4.965358   -0.992546   -0.043985
      5          6           0        6.352033   -0.772715   -0.062587
      6          6           0        6.903724    0.509089   -0.094706
      7          6           0        2.635857    0.240643   -0.021724
      8          6           0        2.416357    1.743625   -0.033010
      9          7           0        3.645798    2.356286   -0.047557
     10          6           0        3.822998    3.797933   -0.063517
     11          6           0        1.212525    2.417896   -0.032357
     12          6           0       -1.266276    2.408389   -0.019125
     13          6           0       -0.042835    1.765492   -0.015641
     14          6           0       -3.872540    3.748771    0.274441
     15          7           0       -3.700059    2.325635   -0.014407
     16          6           0       -2.500014    1.720577   -0.014247
     17          6           0       -2.710513    0.224704    0.059643
     18          6           0       -4.210402    0.093229    0.130505
     19          6           0       -4.763330    1.385098    0.095147
     20          6           0       -6.135588    1.597052   -0.075146
     21          6           0       -6.959460    0.471077   -0.069980
     22          6           0       -6.421255   -0.822373    0.034623
     23          6           0       -5.035288   -1.020303    0.130378
     24         16           0       -7.533416   -2.287588   -0.044141
     25         16           0        7.448539   -2.188561   -0.094924
     26          8           0        8.772902   -1.752008   -0.565511
     27          8           0        7.544611   -2.484111    1.542223
     28          8           0        6.750583   -3.350151   -0.687286
     29          8           0       -7.684999   -2.452950   -1.528140
     30          8           0       -6.733890   -3.357250    0.638260
     31          8           0       -8.762506   -1.822982    0.674845
     32          1           0        6.499744    2.631508   -0.114715
     33          1           0        4.570953   -2.009523   -0.049565
     34          1           0        7.987063    0.623695   -0.135522
     35          1           0        2.185513   -0.220438    0.872659
     36          1           0        2.169026   -0.236311   -0.899110
     37          1           0        4.890993    4.038621   -0.037765
     38          1           0        3.385309    4.234013   -0.976062
     39          1           0        3.340255    4.255318    0.814758
     40          1           0        1.218875    3.509700   -0.047912
     41          1           0       -1.278519    3.500255   -0.039099
     42          1           0       -0.042236    0.671114    0.000332
     43          1           0       -4.939076    3.993421    0.241813
     44          1           0       -3.477751    3.979831    1.275457
     45          1           0       -3.352135    4.361610   -0.475081
     46          1           0       -2.191756   -0.185219    0.942730
     47          1           0       -2.292370   -0.285532   -0.823938
     48          1           0       -6.563154    2.597464   -0.169571
     49          1           0       -8.043480    0.568292   -0.149082
     50          1           0       -4.661790   -2.044718    0.189780
     51          1           0        7.512057   -3.456587    1.627873
 ---------------------------------------------------------------------

 The electronic state is 1-A.
 Alpha  occ. eigenvalues --  -89.15081 -89.01650 -19.21230 -19.16809 -19.16696
 Alpha  occ. eigenvalues --  -19.02727 -19.02679 -19.02637 -14.45520 -14.45303
 Alpha  occ. eigenvalues --  -10.31214 -10.30648 -10.29819 -10.29380 -10.28428
 Alpha  occ. eigenvalues --  -10.27121 -10.27033 -10.26728 -10.26112 -10.25958
 Alpha  occ. eigenvalues --  -10.25775 -10.25634 -10.25205 -10.25000 -10.24955
 Alpha  occ. eigenvalues --  -10.24745 -10.21897 -10.21251 -10.19355 -10.19210
 Alpha  occ. eigenvalues --  -10.18751  -8.18242  -8.04486  -6.14665  -6.14510
 Alpha  occ. eigenvalues --   -6.14371  -6.00816  -6.00789  -6.00781  -1.15920
 Alpha  occ. eigenvalues --   -1.06126  -1.05386  -1.05287  -1.03216  -1.01549
 Alpha  occ. eigenvalues --   -0.92446  -0.88855  -0.88293  -0.88019  -0.87677
 Alpha  occ. eigenvalues --   -0.86836  -0.84679  -0.82736  -0.81029  -0.78311
 Alpha  occ. eigenvalues --   -0.77186  -0.76506  -0.74783  -0.73539  -0.71671
 Alpha  occ. eigenvalues --   -0.68313  -0.66508  -0.65077  -0.63076  -0.62218
 Alpha  occ. eigenvalues --   -0.60870  -0.59986  -0.58773  -0.57321  -0.56697
 Alpha  occ. eigenvalues --   -0.54731  -0.54533  -0.54295  -0.54002  -0.53170
 Alpha  occ. eigenvalues --   -0.52080  -0.51538  -0.51024  -0.49906  -0.49164
 Alpha  occ. eigenvalues --   -0.48560  -0.48379  -0.48324  -0.47548  -0.47233
 Alpha  occ. eigenvalues --   -0.46419  -0.46149  -0.45589  -0.45175  -0.44565
 Alpha  occ. eigenvalues --   -0.43863  -0.43619  -0.43301  -0.42072  -0.41502
 Alpha  occ. eigenvalues --   -0.41004  -0.40776  -0.40342  -0.39193  -0.38463
 Alpha  occ. eigenvalues --   -0.38218  -0.36693  -0.36295  -0.36168  -0.35277
 Alpha  occ. eigenvalues --   -0.34611  -0.34289  -0.34218  -0.32236  -0.31535
 Alpha  occ. eigenvalues --   -0.31288  -0.27369  -0.26438  -0.24287  -0.23594
 Alpha  occ. eigenvalues --   -0.23459  -0.20813  -0.20498  -0.19561  -0.16422
 Alpha virt. eigenvalues --   -0.13983  -0.07519  -0.07381  -0.03910  -0.01815
 Alpha virt. eigenvalues --   -0.00466  -0.00184   0.00541   0.01078   0.01532
 Alpha virt. eigenvalues --    0.02670   0.03193   0.03847   0.04593   0.05123

 Mulliken atomic charges:
              1
     1  C   -0.002814
     2  C    0.245672
     3  C   -0.139405
     4  C    0.051610
     5  C   -0.250336
     6  C    0.111919
     7  C    0.158696
     8  C    0.067927
     9  N   -0.299454
    10  C    0.075864
    11  C   -0.059168
    12  C   -0.039459
    13  C    0.059367
    14  C    0.074182
    15  N   -0.244276
    16  C    0.072074
    17  C    0.145089
    18  C   -0.108936
    19  C    0.169422
    20  C    0.004517
    21  C    0.117048
    22  C   -0.241579
    23  C    0.046171
    24  S    0.984742
    25  S    0.995379
    26  O   -0.409724
    27  O   -0.324518
    28  O   -0.436872
    29  O   -0.517413
    30  O   -0.524988
    31  O   -0.520184
    32  H   -0.005341
    33  H   -0.013832
    34  H    0.005065
    35  H    0.080824
    36  H    0.083256
    37  H    0.055531
    38  H    0.059352
    39  H    0.059088
    40  H   -0.030931
    41  H   -0.029758
    42  H   -0.008063
    43  H    0.065817
    44  H    0.062498
    45  H    0.060509
    46  H    0.077666
    47  H    0.082213
    48  H   -0.022153
    49  H   -0.007497
    50  H   -0.026092
    51  H    0.191297
 Sum of Mulliken atomic charges =   0.00000

 Dipole moment (field-independent basis, Debye):
    X=             22.4226    Y=             18.8759    Z=              2.0562  Tot=             29.3819
 Quadrupole moment (field-independent basis, Debye-Ang):
   XX=           -386.8234   YY=           -180.5399   ZZ=           -201.9796
   XY=            -66.9409   XZ=              9.1487   YZ=             -7.6394

 Normal termination of Gaussian 09 at Sun Mar 22 02:45:04 2015.
