 Gaussian 09, Revision B.01,
 Gaussian 09:  EM64L-G09RevB.01 12-Aug-2010

 ------------------------------------------------------
 # opt=modredundant B3LYP/cc-pVDZ Geom=PrintInputOrient
 ------------------------------------------------------

 -------------------------------
 CY3 Dihedral Scan at MP2/6-31G*
 -------------------------------
 Symbolic Z-matrix:
 Charge =  0 Multiplicity = 1

 SCF Done:  E(RB3LYP) =  -2169.39489223     A.U. after   31 cycles
 SCF Done:  E(RB3LYP) =  -2169.39489903     A.U. after    8 cycles
 SCF Done:  E(RB3LYP) =  -2169.39489944     A.U. after    8 cycles
 Optimization completed.
    -- Stationary point found.
 SCF Done:  E(RB3LYP) =  -2169.39240234     A.U. after   16 cycles
 SCF Done:  E(RB3LYP) =  -2169.39241307     A.U. after    9 cycles
 SCF Done:  E(RB3LYP) =  -2169.39319010     A.U. after   12 cycles
 SCF Done:  E(RB3LYP) =  -2169.39327316     A.U. after   12 cycles
 SCF Done:  E(RB3LYP) =  -2169.39329149     A.U. after   11 cycles
 SCF Done:  E(RB3LYP) =  -2169.39329485     A.U. after   10 cycles
 SCF Done:  E(RB3LYP) =  -2169.39329575     A.U. after    8 cycles
 Optimization completed.
    -- Stationary point found.
 SCF Done:  E(RB3LYP) =  -2169.38849430     A.U. after   15 cycles
 SCF Done:  E(RB3LYP) =  -2169.38850051     A.U. after   10 cycles
 SCF Done:  E(RB3LYP) =  -2169.38850118     A.U. after    8 cycles
 SCF Done:  E(RB3LYP) =  -2169.38850143     A.U. after    8 cycles
 SCF Done:  E(RB3LYP) =  -2169.38850146     A.U. after    7 cycles
 SCF Done:  E(RB3LYP) =  -2169.38850153     A.U. after    7 cycles
 SCF Done:  E(RB3LYP) =  -2169.38850160     A.U. after    7 cycles
 SCF Done:  E(RB3LYP) =  -2169.38850174     A.U. after    7 cycles
 SCF Done:  E(RB3LYP) =  -2169.38850179     A.U. after    8 cycles
 SCF Done:  E(RB3LYP) =  -2169.38850179     A.U. after    7 cycles
 Optimization completed.
    -- Stationary point found.

                         Standard orientation:
 ---------------------------------------------------------------------
 Center     Atomic      Atomic             Coordinates (Angstroms)
 Number     Number       Type             X           Y           Z
 ---------------------------------------------------------------------
      1          6           0       -6.070884    1.635200   -0.038570
      2          6           0       -4.691948    1.419353   -0.040545
      3          6           0       -4.140231    0.125408    0.018211
      4          6           0       -4.964910   -0.984770    0.076383
      5          6           0       -6.351965   -0.767053    0.064564
      6          6           0       -6.905572    0.513585    0.019527
      7          6           0       -2.636854    0.249891    0.018569
      8          6           0       -2.419357    1.751673   -0.048810
      9          7           0       -3.649407    2.361917   -0.083381
     10          6           0       -3.828265    3.801997   -0.149590
     11          6           0       -1.216326    2.427236   -0.071273
     12          6           0        1.261928    2.421815   -0.066587
     13          6           0        0.039831    1.777004   -0.038775
     14          6           0        3.992388    3.679720    0.454147
     15          7           0        3.703749    2.339628   -0.057892
     16          6           0        2.497326    1.738772   -0.056483
     17          6           0        2.698854    0.242530    0.056055
     18          6           0        4.195784    0.090230   -0.025479
     19          6           0        4.753990    1.376986   -0.072522
     20          6           0        6.131802    1.598380   -0.123909
     21          6           0        6.952003    0.467546   -0.131738
     22          6           0        6.406958   -0.825289   -0.075204
     23          6           0        5.017557   -1.024911   -0.033145
     24         16           0        7.519513   -2.290433    0.001224
     25         16           0       -7.446842   -2.181527    0.160391
     26          8           0       -8.776920   -1.722438    0.591360
     27          8           0       -7.525529   -2.566986   -1.458673
     28          8           0       -6.753261   -3.307505    0.822681
     29          8           0        7.700579   -2.433530    1.484402
     30          8           0        6.701172   -3.368693   -0.644738
     31          8           0        8.734623   -1.843797   -0.752153
     32          1           0       -6.504483    2.634712   -0.070844
     33          1           0       -4.569281   -1.999127    0.142675
     34          1           0       -7.989461    0.628417    0.040215
     35          1           0       -2.173381   -0.258120   -0.843078
     36          1           0       -2.181824   -0.177730    0.927050
     37          1           0       -4.896298    4.039377   -0.195645
     38          1           0       -3.397353    4.288597    0.740306
     39          1           0       -3.339811    4.210346   -1.048646
     40          1           0       -1.224209    3.518136   -0.117804
     41          1           0        1.269884    3.512502   -0.128493
     42          1           0        0.040408    0.683675    0.009080
     43          1           0        4.404567    3.584650    1.470054
     44          1           0        4.734377    4.175610   -0.186728
     45          1           0        3.084312    4.290866    0.478117
     46          1           0        2.157134   -0.318468   -0.721481
     47          1           0        2.300280   -0.088537    1.031741
     48          1           0        6.559017    2.601652   -0.172339
     49          1           0        8.037819    0.557045   -0.196594
     50          1           0        4.640469   -2.049475   -0.015448
     51          1           0       -7.473266   -3.541800   -1.491042
 ---------------------------------------------------------------------

 The electronic state is 1-A.
 Alpha  occ. eigenvalues --  -89.15108 -89.01575 -19.21248 -19.16837 -19.16720
 Alpha  occ. eigenvalues --  -19.02641 -19.02619 -19.02554 -14.45416 -14.45345
 Alpha  occ. eigenvalues --  -10.31260 -10.31034 -10.29849 -10.29410 -10.28454
 Alpha  occ. eigenvalues --  -10.27159 -10.27092 -10.26756 -10.26144 -10.25986
 Alpha  occ. eigenvalues --  -10.25801 -10.25664 -10.25112 -10.25040 -10.24921
 Alpha  occ. eigenvalues --  -10.24790 -10.21817 -10.21115 -10.19361 -10.19083
 Alpha  occ. eigenvalues --  -10.18646  -8.18268  -8.04411  -6.14691  -6.14536
 Alpha  occ. eigenvalues --   -6.14397  -6.00741  -6.00715  -6.00707  -1.15949
 Alpha  occ. eigenvalues --   -1.06166  -1.05408  -1.05201  -1.03247  -1.01469
 Alpha  occ. eigenvalues --   -0.92476  -0.88934  -0.88221  -0.87935  -0.87527
 Alpha  occ. eigenvalues --   -0.86931  -0.84777  -0.82755  -0.81014  -0.78251
 Alpha  occ. eigenvalues --   -0.77062  -0.76574  -0.74867  -0.73538  -0.71678
 Alpha  occ. eigenvalues --   -0.68332  -0.66537  -0.65062  -0.63079  -0.62184
 Alpha  occ. eigenvalues --   -0.60882  -0.60018  -0.58798  -0.57362  -0.56699
 Alpha  occ. eigenvalues --   -0.54697  -0.54492  -0.54336  -0.54035  -0.53055
 Alpha  occ. eigenvalues --   -0.52089  -0.51550  -0.51053  -0.49941  -0.49205
 Alpha  occ. eigenvalues --   -0.48610  -0.48369  -0.48337  -0.47553  -0.47236
 Alpha  occ. eigenvalues --   -0.46599  -0.46047  -0.45621  -0.45212  -0.44599
 Alpha  occ. eigenvalues --   -0.43915  -0.43652  -0.43445  -0.42013  -0.41589
 Alpha  occ. eigenvalues --   -0.41025  -0.40811  -0.39980  -0.39167  -0.38476
 Alpha  occ. eigenvalues --   -0.38102  -0.36679  -0.36270  -0.36123  -0.35280
 Alpha  occ. eigenvalues --   -0.34520  -0.34315  -0.34208  -0.32276  -0.31563
 Alpha  occ. eigenvalues --   -0.31247  -0.27322  -0.26468  -0.24264  -0.23521
 Alpha  occ. eigenvalues --   -0.23410  -0.20707  -0.20466  -0.19503  -0.16351
 Alpha virt. eigenvalues --   -0.14056  -0.07564  -0.07415  -0.03999  -0.01762
 Alpha virt. eigenvalues --   -0.00565  -0.00194   0.00468   0.01039   0.01604
 Alpha virt. eigenvalues --    0.02240   0.03157   0.03793   0.04490   0.05009

 Mulliken atomic charges:
              1
     1  C   -0.002697
     2  C    0.245768
     3  C   -0.139228
     4  C    0.051486
     5  C   -0.250243
     6  C    0.111960
     7  C    0.158460
     8  C    0.067722
     9  N   -0.299182
    10  C    0.075807
    11  C   -0.059579
    12  C   -0.037139
    13  C    0.062961
    14  C    0.068982
    15  N   -0.249394
    16  C    0.058500
    17  C    0.147936
    18  C   -0.103590
    19  C    0.201464
    20  C   -0.007261
    21  C    0.108793
    22  C   -0.241918
    23  C    0.040447
    24  S    0.985614
    25  S    0.995684
    26  O   -0.409508
    27  O   -0.324256
    28  O   -0.437175
    29  O   -0.518606
    30  O   -0.525732
    31  O   -0.520446
    32  H   -0.005217
    33  H   -0.013801
    34  H    0.005167
    35  H    0.081683
    36  H    0.082674
    37  H    0.055650
    38  H    0.058946
    39  H    0.059826
    40  H   -0.031035
    41  H   -0.020290
    42  H   -0.007985
    43  H    0.074227
    44  H    0.069630
    45  H    0.050172
    46  H    0.074023
    47  H    0.085939
    48  H   -0.032386
    49  H   -0.007406
    50  H   -0.026889
    51  H    0.191442
 Sum of Mulliken atomic charges =   0.00000

 Dipole moment (field-independent basis, Debye):
    X=            -22.4676    Y=             18.8456    Z=             -1.2590  Tot=             29.3519
 Quadrupole moment (field-independent basis, Debye-Ang):
   XX=           -387.0709   YY=           -180.2198   ZZ=           -202.3649
   XY=             67.6688   XZ=             14.0418   YZ=              8.6392

 Normal termination of Gaussian 09 at Sat Mar 21 21:28:49 2015.
