 Gaussian 09, Revision B.01,
 Gaussian 09:  EM64L-G09RevB.01 12-Aug-2010

 ------------------------------------------------------
 # opt=modredundant B3LYP/cc-pVDZ Geom=PrintInputOrient
 ------------------------------------------------------

 -------------------------------
 CY3 Dihedral Scan at MP2/6-31G*
 -------------------------------
 Symbolic Z-matrix:
 Charge =  0 Multiplicity = 1

 SCF Done:  E(RB3LYP) =  -2169.39489223     A.U. after   31 cycles
 SCF Done:  E(RB3LYP) =  -2169.39489903     A.U. after    8 cycles
 SCF Done:  E(RB3LYP) =  -2169.39489944     A.U. after    8 cycles
 Optimization completed.
    -- Stationary point found.
 SCF Done:  E(RB3LYP) =  -2169.39284684     A.U. after   12 cycles
 SCF Done:  E(RB3LYP) =  -2169.39293288     A.U. after   10 cycles
 SCF Done:  E(RB3LYP) =  -2169.39371779     A.U. after   12 cycles
 SCF Done:  E(RB3LYP) =  -2169.39374734     A.U. after   10 cycles
 SCF Done:  E(RB3LYP) =  -2169.39375418     A.U. after   10 cycles
 SCF Done:  E(RB3LYP) =  -2169.39375699     A.U. after   10 cycles
 SCF Done:  E(RB3LYP) =  -2169.39375836     A.U. after    8 cycles
 SCF Done:  E(RB3LYP) =  -2169.39376256     A.U. after    9 cycles
 SCF Done:  E(RB3LYP) =  -2169.39376552     A.U. after   10 cycles
 SCF Done:  E(RB3LYP) =  -2169.39376615     A.U. after    8 cycles
 SCF Done:  E(RB3LYP) =  -2169.39376617     A.U. after    6 cycles
 Optimization completed.
    -- Stationary point found.
 SCF Done:  E(RB3LYP) =  -2169.38782390     A.U. after   12 cycles
 SCF Done:  E(RB3LYP) =  -2169.39017668     A.U. after   13 cycles
 SCF Done:  E(RB3LYP) =  -2169.39028761     A.U. after   12 cycles
 SCF Done:  E(RB3LYP) =  -2169.39029904     A.U. after   10 cycles
 SCF Done:  E(RB3LYP) =  -2169.39029953     A.U. after    8 cycles
 SCF Done:  E(RB3LYP) =  -2169.39029961     A.U. after    7 cycles
 Optimization completed.
    -- Stationary point found.

                         Standard orientation:
 ---------------------------------------------------------------------
 Center     Atomic      Atomic             Coordinates (Angstroms)
 Number     Number       Type             X           Y           Z
 ---------------------------------------------------------------------
      1          6           0        6.068494    1.635452   -0.144603
      2          6           0        4.688893    1.423674   -0.147155
      3          6           0        4.135143    0.131511   -0.126674
      4          6           0        4.957967   -0.982922   -0.105250
      5          6           0        6.344356   -0.767380   -0.081145
      6          6           0        6.902053    0.512386   -0.116842
      7          6           0        2.635838    0.259680   -0.228189
      8          6           0        2.422917    1.762818   -0.167807
      9          7           0        3.657732    2.387411   -0.148619
     10          6           0        3.806645    3.712733    0.446850
     11          6           0        1.222263    2.431531   -0.091720
     12          6           0       -1.254193    2.428014   -0.035094
     13          6           0       -0.037421    1.780075   -0.084894
     14          6           0       -3.991474    3.753990    0.043825
     15          7           0       -3.702379    2.325810    0.017349
     16          6           0       -2.493644    1.744850   -0.020789
     17          6           0       -2.690205    0.242622   -0.039461
     18          6           0       -4.188453    0.085744   -0.000839
     19          6           0       -4.751369    1.371609    0.034702
     20          6           0       -6.129030    1.593758    0.093266
     21          6           0       -6.946687    0.461557    0.105426
     22          6           0       -6.398954   -0.830816    0.053812
     23          6           0       -5.008735   -1.029716    0.015596
     24         16           0       -7.510576   -2.297631   -0.004316
     25         16           0        7.436340   -2.187470   -0.058147
     26          8           0        8.771351   -1.766175   -0.511865
     27          8           0        7.501083   -2.446227    1.586894
     28          8           0        6.745771   -3.360688   -0.636386
     29          8           0       -7.697688   -2.455287   -1.484838
     30          8           0       -6.688432   -3.367844    0.649799
     31          8           0       -8.721874   -1.842975    0.750418
     32          1           0        6.499998    2.636266   -0.178554
     33          1           0        4.560964   -1.998893   -0.112995
     34          1           0        7.986483    0.622980   -0.130876
     35          1           0        2.102175   -0.249530    0.590275
     36          1           0        2.254758   -0.163712   -1.172935
     37          1           0        4.871100    3.936288    0.580174
     38          1           0        3.375444    4.488239   -0.204075
     39          1           0        3.303961    3.747422    1.427216
     40          1           0        1.228726    3.522764   -0.050046
     41          1           0       -1.254364    3.519385   -0.002745
     42          1           0       -0.039871    0.686481   -0.122275
     43          1           0       -4.667536    3.999672   -0.787916
     44          1           0       -4.489357    4.011044    0.990884
     45          1           0       -3.072933    4.339305   -0.055247
     46          1           0       -2.189784   -0.223757    0.825429
     47          1           0       -2.239492   -0.194511   -0.946194
     48          1           0       -6.556827    2.596917    0.137846
     49          1           0       -8.032618    0.548675    0.171270
     50          1           0       -4.631064   -2.054172    0.014631
     51          1           0        7.442413   -3.415258    1.694165
 ---------------------------------------------------------------------

 The electronic state is 1-A.
 Alpha  occ. eigenvalues --  -89.14989 -89.01781 -19.21141 -19.16733 -19.16606
 Alpha  occ. eigenvalues --  -19.02848 -19.02827 -19.02759 -14.46188 -14.44502
 Alpha  occ. eigenvalues --  -10.31230 -10.30836 -10.29394 -10.28918 -10.28762
 Alpha  occ. eigenvalues --  -10.27054 -10.26890 -10.26620 -10.25895 -10.25791
 Alpha  occ. eigenvalues --  -10.25597 -10.25399 -10.25353 -10.25265 -10.25215
 Alpha  occ. eigenvalues --  -10.24671 -10.22123 -10.21450 -10.19620 -10.19364
 Alpha  occ. eigenvalues --  -10.18936  -8.18151  -8.04617  -6.14574  -6.14419
 Alpha  occ. eigenvalues --   -6.14278  -6.00947  -6.00920  -6.00912  -1.15834
 Alpha  occ. eigenvalues --   -1.05852  -1.05393  -1.05296  -1.03136  -1.01683
 Alpha  occ. eigenvalues --   -0.92199  -0.88836  -0.88429  -0.88152  -0.87931
 Alpha  occ. eigenvalues --   -0.86695  -0.84767  -0.82667  -0.80935  -0.78114
 Alpha  occ. eigenvalues --   -0.77306  -0.76351  -0.74992  -0.73625  -0.71527
 Alpha  occ. eigenvalues --   -0.68324  -0.66352  -0.64991  -0.63118  -0.62472
 Alpha  occ. eigenvalues --   -0.60731  -0.60156  -0.58434  -0.57100  -0.56821
 Alpha  occ. eigenvalues --   -0.54938  -0.54499  -0.54089  -0.53804  -0.53492
 Alpha  occ. eigenvalues --   -0.52219  -0.51259  -0.50725  -0.49516  -0.49107
 Alpha  occ. eigenvalues --   -0.48712  -0.48613  -0.48226  -0.47490  -0.47067
 Alpha  occ. eigenvalues --   -0.46825  -0.46158  -0.45458  -0.45389  -0.44444
 Alpha  occ. eigenvalues --   -0.44152  -0.43498  -0.43181  -0.42185  -0.41479
 Alpha  occ. eigenvalues --   -0.40982  -0.40664  -0.40171  -0.39114  -0.38406
 Alpha  occ. eigenvalues --   -0.38332  -0.36758  -0.36373  -0.36216  -0.35406
 Alpha  occ. eigenvalues --   -0.34784  -0.34212  -0.34104  -0.32183  -0.31339
 Alpha  occ. eigenvalues --   -0.31177  -0.27451  -0.26750  -0.24408  -0.23719
 Alpha  occ. eigenvalues --   -0.23615  -0.20915  -0.20674  -0.19720  -0.16551
 Alpha virt. eigenvalues --   -0.13904  -0.07534  -0.07239  -0.04126  -0.02036
 Alpha virt. eigenvalues --   -0.00328   0.00132   0.00438   0.01128   0.01491
 Alpha virt. eigenvalues --    0.02383   0.03256   0.03736   0.04361   0.04753

 Mulliken atomic charges:
              1
     1  C   -0.002510
     2  C    0.227943
     3  C   -0.125077
     4  C    0.048198
     5  C   -0.249721
     6  C    0.111833
     7  C    0.152119
     8  C    0.062398
     9  N   -0.292820
    10  C    0.071102
    11  C   -0.051611
    12  C   -0.036765
    13  C    0.061259
    14  C    0.072582
    15  N   -0.250500
    16  C    0.058642
    17  C    0.149918
    18  C   -0.112421
    19  C    0.214187
    20  C   -0.007872
    21  C    0.108251
    22  C   -0.242670
    23  C    0.043225
    24  S    0.986494
    25  S    0.995876
    26  O   -0.409579
    27  O   -0.324693
    28  O   -0.437464
    29  O   -0.516802
    30  O   -0.524895
    31  O   -0.519851
    32  H   -0.005661
    33  H   -0.013383
    34  H    0.005068
    35  H    0.075741
    36  H    0.083704
    37  H    0.053563
    38  H    0.058749
    39  H    0.052642
    40  H   -0.031342
    41  H   -0.022270
    42  H   -0.007924
    43  H    0.073808
    44  H    0.071857
    45  H    0.054928
    46  H    0.081382
    47  H    0.083009
    48  H   -0.031660
    49  H   -0.006168
    50  H   -0.025923
    51  H    0.191103
 Sum of Mulliken atomic charges =   0.00000

 Dipole moment (field-independent basis, Debye):
    X=             21.3625    Y=             18.8775    Z=              2.0427  Tot=             28.5813
 Quadrupole moment (field-independent basis, Debye-Ang):
   XX=           -385.7352   YY=           -181.7505   ZZ=           -201.4870
   XY=            -69.1250   XZ=             11.5524   YZ=             -5.4114

 Normal termination of Gaussian 09 at Fri Mar 20 19:04:59 2015.
