 Gaussian 09, Revision B.01,
 Gaussian 09:  EM64L-G09RevB.01 12-Aug-2010

 ------------------------------------------------------
 # opt=modredundant B3LYP/cc-pVDZ Geom=PrintInputOrient
 ------------------------------------------------------

 -------------------------------
 CY3 Dihedral Scan at MP2/6-31G*
 -------------------------------
 Symbolic Z-matrix:
 Charge =  0 Multiplicity = 1

 SCF Done:  E(RB3LYP) =  -2169.39489223     A.U. after   31 cycles
 SCF Done:  E(RB3LYP) =  -2169.39489900     A.U. after    8 cycles
 SCF Done:  E(RB3LYP) =  -2169.39489939     A.U. after    8 cycles
 Optimization completed.
    -- Stationary point found.
 SCF Done:  E(RB3LYP) =  -2169.39305857     A.U. after   17 cycles
 SCF Done:  E(RB3LYP) =  -2169.39311712     A.U. after   11 cycles
 SCF Done:  E(RB3LYP) =  -2169.39377673     A.U. after   13 cycles
 SCF Done:  E(RB3LYP) =  -2169.39381627     A.U. after   11 cycles
 SCF Done:  E(RB3LYP) =  -2169.39382104     A.U. after   10 cycles
 SCF Done:  E(RB3LYP) =  -2169.39382362     A.U. after    8 cycles
 SCF Done:  E(RB3LYP) =  -2169.39382681     A.U. after   10 cycles
 Optimization completed.
    -- Stationary point found.
 SCF Done:  E(RB3LYP) =  -2169.38927288     A.U. after   17 cycles
 SCF Done:  E(RB3LYP) =  -2169.39072371     A.U. after   13 cycles
 SCF Done:  E(RB3LYP) =  -2169.39082579     A.U. after   12 cycles
 SCF Done:  E(RB3LYP) =  -2169.39085101     A.U. after   11 cycles
 SCF Done:  E(RB3LYP) =  -2169.39085790     A.U. after   11 cycles
 SCF Done:  E(RB3LYP) =  -2169.39086703     A.U. after   11 cycles
 SCF Done:  E(RB3LYP) =  -2169.39086904     A.U. after   10 cycles
 SCF Done:  E(RB3LYP) =  -2169.39086961     A.U. after    9 cycles
 SCF Done:  E(RB3LYP) =  -2169.39086966     A.U. after    6 cycles
 SCF Done:  E(RB3LYP) =  -2169.39086965     A.U. after    7 cycles
 Optimization completed.
    -- Stationary point found.

                         Standard orientation:
 ---------------------------------------------------------------------
 Center     Atomic      Atomic             Coordinates (Angstroms)
 Number     Number       Type             X           Y           Z
 ---------------------------------------------------------------------
      1          6           0        6.059450    1.635945   -0.030706
      2          6           0        4.683665    1.414937    0.045928
      3          6           0        4.130688    0.121883    0.039757
      4          6           0        4.954289   -0.988286   -0.036601
      5          6           0        6.339747   -0.766676   -0.102799
      6          6           0        6.893583    0.514624   -0.110813
      7          6           0        2.630737    0.250265    0.135715
      8          6           0        2.417664    1.756277    0.155827
      9          7           0        3.654562    2.370743    0.120647
     10          6           0        3.910192    3.735174    0.568477
     11          6           0        1.218891    2.424127    0.032126
     12          6           0       -1.255732    2.422772   -0.083272
     13          6           0       -0.041915    1.777821    0.042190
     14          6           0       -3.984583    3.737894   -0.369388
     15          7           0       -3.701614    2.318501   -0.199459
     16          6           0       -2.495916    1.742081   -0.077771
     17          6           0       -2.698221    0.247990    0.073663
     18          6           0       -4.196173    0.091374    0.023420
     19          6           0       -4.753723    1.369248   -0.140506
     20          6           0       -6.131137    1.590913   -0.208439
     21          6           0       -6.952907    0.465602   -0.114420
     22          6           0       -6.409185   -0.821175    0.033345
     23          6           0       -5.020874   -1.017130    0.118872
     24         16           0       -7.521772   -2.287789    0.082730
     25         16           0        7.431853   -2.181331   -0.226291
     26          8           0        8.744217   -1.727640   -0.714140
     27          8           0        7.570752   -2.545439    1.394242
     28          8           0        6.716125   -3.316867   -0.847253
     29          8           0       -7.648365   -2.602282   -1.378975
     30          8           0       -6.732159   -3.281500    0.881802
     31          8           0       -8.762088   -1.756604    0.733279
     32          1           0        6.483283    2.640337   -0.048935
     33          1           0        4.559781   -2.005060   -0.054892
     34          1           0        7.974742    0.628671   -0.191995
     35          1           0        2.234723   -0.217629    1.053663
     36          1           0        2.109115   -0.216444   -0.714306
     37          1           0        4.781950    3.739790    1.238829
     38          1           0        4.109117    4.414801   -0.276330
     39          1           0        3.039801    4.106505    1.124713
     40          1           0        1.233354    3.512699   -0.063492
     41          1           0       -1.252022    3.509773   -0.186120
     42          1           0       -0.048842    0.689088    0.152147
     43          1           0       -4.604324    3.876186   -1.267140
     44          1           0       -4.541178    4.109881    0.504029
     45          1           0       -3.058660    4.309128   -0.481610
     46          1           0       -2.263552   -0.106900    1.022918
     47          1           0       -2.185833   -0.295147   -0.738031
     48          1           0       -6.556591    2.590063   -0.318362
     49          1           0       -8.040195    0.557506   -0.135861
     50          1           0       -4.649501   -2.032548    0.271297
     51          1           0        7.543799   -3.520814    1.438875
 ---------------------------------------------------------------------

 The electronic state is 1-A.
 Alpha  occ. eigenvalues --  -89.14975 -89.01719 -19.21138 -19.16705 -19.16602
 Alpha  occ. eigenvalues --  -19.02787 -19.02758 -19.02691 -14.46070 -14.44739
 Alpha  occ. eigenvalues --  -10.31138 -10.31104 -10.29353 -10.29059 -10.28686
 Alpha  occ. eigenvalues --  -10.27003 -10.26956 -10.26623 -10.25943 -10.25818
 Alpha  occ. eigenvalues --  -10.25612 -10.25401 -10.25276 -10.25192 -10.25127
 Alpha  occ. eigenvalues --  -10.24684 -10.22045 -10.21373 -10.19530 -10.19316
 Alpha  occ. eigenvalues --  -10.18861  -8.18137  -8.04554  -6.14561  -6.14406
 Alpha  occ. eigenvalues --   -6.14266  -6.00884  -6.00858  -6.00849  -1.15818
 Alpha  occ. eigenvalues --   -1.05749  -1.05605  -1.05291  -1.03113  -1.01617
 Alpha  occ. eigenvalues --   -0.92194  -0.88881  -0.88360  -0.88090  -0.87853
 Alpha  occ. eigenvalues --   -0.86794  -0.84717  -0.82636  -0.80970  -0.78166
 Alpha  occ. eigenvalues --   -0.77257  -0.76396  -0.74980  -0.73610  -0.71573
 Alpha  occ. eigenvalues --   -0.68306  -0.66338  -0.65031  -0.63090  -0.62406
 Alpha  occ. eigenvalues --   -0.60828  -0.60099  -0.58464  -0.57128  -0.56802
 Alpha  occ. eigenvalues --   -0.54891  -0.54501  -0.54008  -0.53894  -0.53409
 Alpha  occ. eigenvalues --   -0.52173  -0.51343  -0.50676  -0.49642  -0.49083
 Alpha  occ. eigenvalues --   -0.48674  -0.48540  -0.48226  -0.47501  -0.47233
 Alpha  occ. eigenvalues --   -0.46756  -0.46130  -0.45522  -0.45355  -0.44370
 Alpha  occ. eigenvalues --   -0.44087  -0.43416  -0.43200  -0.42141  -0.41442
 Alpha  occ. eigenvalues --   -0.41006  -0.40667  -0.40318  -0.39115  -0.38405
 Alpha  occ. eigenvalues --   -0.38288  -0.36699  -0.36312  -0.36192  -0.35348
 Alpha  occ. eigenvalues --   -0.34715  -0.34195  -0.34150  -0.32134  -0.31380
 Alpha  occ. eigenvalues --   -0.31161  -0.27378  -0.26672  -0.24296  -0.23654
 Alpha  occ. eigenvalues --   -0.23548  -0.20858  -0.20604  -0.19653  -0.16487
 Alpha virt. eigenvalues --   -0.13854  -0.07438  -0.07231  -0.04161  -0.01971
 Alpha virt. eigenvalues --   -0.00263   0.00118   0.00458   0.01166   0.01541
 Alpha virt. eigenvalues --    0.02197   0.03552   0.03894   0.04530   0.05170

 Mulliken atomic charges:
              1
     1  C   -0.004380
     2  C    0.246806
     3  C   -0.131778
     4  C    0.050137
     5  C   -0.250120
     6  C    0.108362
     7  C    0.156657
     8  C    0.039337
     9  N   -0.293237
    10  C    0.068181
    11  C   -0.037146
    12  C   -0.038274
    13  C    0.063209
    14  C    0.072712
    15  N   -0.250878
    16  C    0.058238
    17  C    0.149444
    18  C   -0.111963
    19  C    0.214373
    20  C   -0.008397
    21  C    0.109779
    22  C   -0.242698
    23  C    0.041253
    24  S    0.986239
    25  S    0.994947
    26  O   -0.410031
    27  O   -0.325106
    28  O   -0.437005
    29  O   -0.516958
    30  O   -0.525213
    31  O   -0.520197
    32  H   -0.011212
    33  H   -0.014629
    34  H    0.005711
    35  H    0.079403
    36  H    0.080351
    37  H    0.058866
    38  H    0.055425
    39  H    0.055447
    40  H   -0.025251
    41  H   -0.022616
    42  H   -0.007666
    43  H    0.073509
    44  H    0.071422
    45  H    0.054708
    46  H    0.081538
    47  H    0.082170
    48  H   -0.031859
    49  H   -0.006521
    50  H   -0.026101
    51  H    0.191010
 Sum of Mulliken atomic charges =   0.00000

 Dipole moment (field-independent basis, Debye):
    X=             21.7495    Y=             18.8457    Z=              1.7575  Tot=             28.8321
 Quadrupole moment (field-independent basis, Debye-Ang):
   XX=           -385.0947   YY=           -180.4314   ZZ=           -202.1708
   XY=            -69.5843   XZ=             19.7912   YZ=             -7.0492

 Normal termination of Gaussian 09 at Sat Mar 21 00:08:21 2015.
